

     ************************************************************************
     *************** Dalton - An Electronic Structure Program ***************
     ************************************************************************

    This is output from DALTON release Dalton2020.0 (2020)
         ( Web site: http://daltonprogram.org )

   ----------------------------------------------------------------------------

    NOTE:
     
    Dalton is an experimental code for the evaluation of molecular
    properties using (MC)SCF, DFT, CI, and CC wave functions.
    The authors accept no responsibility for the performance of
    the code or for the correctness of the results.
     
    The code (in whole or part) is provided under a licence and
    is not to be reproduced for further distribution without
    the written permission of the authors or their representatives.
     
    See the home page "http://daltonprogram.org" for further information.
     
    If results obtained with this code are published,
    the appropriate citations would be both of:
     
       K. Aidas, C. Angeli, K. L. Bak, V. Bakken, R. Bast,
       L. Boman, O. Christiansen, R. Cimiraglia, S. Coriani,
       P. Dahle, E. K. Dalskov, U. Ekstroem,
       T. Enevoldsen, J. J. Eriksen, P. Ettenhuber, B. Fernandez,
       L. Ferrighi, H. Fliegl, L. Frediani, K. Hald, A. Halkier,
       C. Haettig, H. Heiberg, T. Helgaker, A. C. Hennum,
       H. Hettema, E. Hjertenaes, S. Hoest, I.-M. Hoeyvik,
       M. F. Iozzi, B. Jansik, H. J. Aa. Jensen, D. Jonsson,
       P. Joergensen, J. Kauczor, S. Kirpekar,
       T. Kjaergaard, W. Klopper, S. Knecht, R. Kobayashi, H. Koch,
       J. Kongsted, A. Krapp, K. Kristensen, A. Ligabue,
       O. B. Lutnaes, J. I. Melo, K. V. Mikkelsen, R. H. Myhre,
       C. Neiss, C. B. Nielsen, P. Norman, J. Olsen,
       J. M. H. Olsen, A. Osted, M. J. Packer, F. Pawlowski,
       T. B. Pedersen, P. F. Provasi, S. Reine, Z. Rinkevicius,
       T. A. Ruden, K. Ruud, V. Rybkin, P. Salek, C. C. M. Samson,
       A. Sanchez de Meras, T. Saue, S. P. A. Sauer,
       B. Schimmelpfennig, K. Sneskov, A. H. Steindal,
       K. O. Sylvester-Hvid, P. R. Taylor, A. M. Teale,
       E. I. Tellgren, D. P. Tew, A. J. Thorvaldsen, L. Thoegersen,
       O. Vahtras, M. A. Watson, D. J. D. Wilson, M. Ziolkowski
       and H. Agren,
       "The Dalton quantum chemistry program system",
       WIREs Comput. Mol. Sci. 2014, 4:269–284 (doi: 10.1002/wcms.1172)
     
    and
     
       Dalton, a molecular electronic structure program,
       Release Dalton2020.0 (2020), see http://daltonprogram.org
   ----------------------------------------------------------------------------

    Authors in alphabetical order (Major contribution(s) in parenthesis):

  Kestutis Aidas,           Vilnius University,           Lithuania   (QM/MM)
  Celestino Angeli,         University of Ferrara,        Italy       (NEVPT2)
  Keld L. Bak,              UNI-C,                        Denmark     (AOSOPPA, non-adiabatic coupling, magnetic properties)
  Vebjoern Bakken,          University of Oslo,           Norway      (DALTON; geometry optimizer, symmetry detection)
  Radovan Bast,             UiT The Arctic U. of Norway,  Norway      (DALTON installation and execution frameworks)
  Pablo Baudin,             University of Valencia,       Spain       (Cholesky excitation energies)
  Linus Boman,              NTNU,                         Norway      (Cholesky decomposition and subsystems)
  Bruno N. Cabral Tenorio,  Technical Univ. of Denmark,   Denmark     (Lanczos-based CC methods)
  Ove Christiansen,         Aarhus University,            Denmark     (CC module)
  Renzo Cimiraglia,         University of Ferrara,        Italy       (NEVPT2)
  Sonia Coriani,            Technical Univ. of Denmark,   Denmark     (CC and RESPONS modules)
  Janusz Cukras,            University of Warsaw,         Poland      (MChD in RESPONS)
  Paal Dahle,               University of Oslo,           Norway      (Parallelization)
  Erik K. Dalskov,          UNI-C,                        Denmark     (SOPPA)
  Thomas Enevoldsen,        Univ. of Southern Denmark,    Denmark     (SOPPA)
  Janus J. Eriksen,         Aarhus University,            Denmark     (Polarizable embedding, TDA)
  Rasmus Faber,             Technical Univ. of Denmark,   Denmark     (Vib.avg. NMR w. SOPPA, parallel AO-SOPPA, CVS-CC and EOMCC)
  Tobias Fahleson,          KTH Stockholm,                Sweden      (Damped cubic response)
  Berta Fernandez,          U. of Santiago de Compostela, Spain       (Doublet spin, ESR in RESPONS)
  Lara Ferrighi,            Aarhus University,            Denmark     (PCM Cubic response)
  Heike Fliegl,             University of Oslo,           Norway      (CCSD(R12))
  Luca Frediani,            UiT The Arctic U. of Norway,  Norway      (PCM)
  Emmanuel Fromager,        Univ. Strasbourg,             France      (MC-srDFT)
  Bin Gao,                  UiT The Arctic U. of Norway,  Norway      (Gen1Int library)
  Andre S. P. Gomes,        CNRS/Universite de Lille,     France      (Frozen density embedding)
  Christof Haettig,         Ruhr-University Bochum,       Germany     (CC module)
  Kasper Hald,              Aarhus University,            Denmark     (CC module)
  Asger Halkier,            Aarhus University,            Denmark     (CC module)
  Frederik Beyer Hansen,    University of Copenhagen,     Denmark     (Parallel AO-SOPPA)
  Erik D. Hedegaard,        Univ. of Southern Denmark,    Denmark     (Polarizable embedding, QM/MM, and MC-srDFT)
  Hanne Heiberg,            University of Oslo,           Norway      (Geometry analysis, selected one-electron integrals)
  Trygve Helgaker,          University of Oslo,           Norway      (DALTON; ABACUS, ERI, DFT modules, London, and much more)
  Alf Christian Hennum,     University of Oslo,           Norway      (Parity violation)
  Hinne Hettema,            University of Auckland,       New Zealand (Quadratic response in RESPONS; SIRIUS supersymmetry)
  Eirik Hjertenaes,         NTNU,                         Norway      (Cholesky decomposition)
  Pi A. B. Haase,           University of Copenhagen,     Denmark     (Triplet AO-SOPPA)
  Maria Francesca Iozzi,    University of Oslo,           Norway      (RPA)
  Christoph Jacob           TU Braunschweig               Germany     (Frozen density embedding)
  Brano Jansik              Technical Univ. of Ostrava    Czech Rep.  (DFT cubic response)
  Hans Joergen Aa. Jensen,  Univ. of Southern Denmark,    Denmark     (DALTON; SIRIUS, RESPONS, ABACUS, MC-srDFT, and much more)
  Dan Jonsson,              UiT The Arctic U. of Norway,  Norway      (Cubic response in RESPONS module)
  Poul Joergensen,          Aarhus University,            Denmark     (RESPONS, ABACUS, and CC modules)
  Maciej Kaminski,          University of Warsaw,         Poland      (CPPh in RESPONS)
  Joanna Kauczor,           Linkoeping University,        Sweden      (Complex polarization propagator (CPP) module)
  Sheela Kirpekar,          Univ. of Southern Denmark,    Denmark     (Mass-velocity & Darwin integrals)
  Erik Kjellgren,           Univ. of Southern Denmark,    Denmark     (MC-srDFT)
  Wim Klopper,              KIT Karlsruhe,                Germany     (R12 code in CC, SIRIUS, and ABACUS modules)
  Stefan Knecht,            ETH Zurich,                   Switzerland (Parallel CI and MCSCF, MC-srDFT)
  Rika Kobayashi,           Australian National Univ.,    Australia   (DIIS in CC, London in MCSCF)
  Henrik Koch,              NTNU,                         Norway      (CC module, Cholesky decomposition)
  Jacob Kongsted,           Univ. of Southern Denmark,    Denmark     (Polarizable embedding, polarizable density embedding, QM/MM)
  Andrea Ligabue,           University of Modena,         Italy       (CTOCD, AOSOPPA)
  Nanna H. List             Univ. of Southern Denmark,    Denmark     (Polarizable embedding)
  Ola B. Lutnaes,           University of Oslo,           Norway      (DFT Hessian)
  Juan I. Melo,             University of Buenos Aires,   Argentina   (LRESC, Relativistic Effects on NMR Shieldings)
  Kurt V. Mikkelsen,        University of Copenhagen,     Denmark     (MC-SCRF and QM/MM)
  Rolf H. Myhre,            NTNU,                         Norway      (Subsystems and CC3)
  Christian Neiss,          Univ. Erlangen-Nuernberg,     Germany     (CCSD(R12))
  Christian B. Nielsen,     University of Copenhagen,     Denmark     (QM/MM)
  Patrick Norman,           KTH Stockholm,                Sweden      (Cubic response and complex frequency response in RESPONS)
  Jeppe Olsen,              Aarhus University,            Denmark     (SIRIUS CI/density modules)
  Jogvan Magnus H. Olsen,   Aarhus University,            Denmark     (Polarizable embedding and polarizable density embedding)
  Anders Osted,             Copenhagen University,        Denmark     (QM/MM)
  Martin J. Packer,         University of Sheffield,      UK          (SOPPA)
  Filip Pawlowski,          Kazimierz Wielki University,  Poland      (CC3)
  Morten N. Pedersen,       Univ. of Southern Denmark,    Denmark     (Polarizable embedding)
  Thomas B. Pedersen,       University of Oslo,           Norway      (Cholesky decomposition)
  Patricio F. Provasi,      University of Northeastern,   Argentina   (Analysis of coupling constants in localized orbitals)
  Peter Reinholdt,          Univ. of Southern Denmark,    Denmark     (Polarizable embedding and polarizable density embedding)
  Zilvinas Rinkevicius,     KTH Stockholm,                Sweden      (open-shell DFT, ESR)
  Elias Rudberg,            KTH Stockholm,                Sweden      (DFT grid and basis info)
  Torgeir A. Ruden,         University of Oslo,           Norway      (Numerical derivatives in ABACUS)
  Kenneth Ruud,             UiT The Arctic U. of Norway,  Norway      (DALTON; ABACUS magnetic properties and much more)
  Pawel Salek,              KTH Stockholm,                Sweden      (DALTON; DFT code)
  Claire C. M. Samson       University of Karlsruhe       Germany     (Boys localization, r12 integrals in ERI)
  Alfredo Sanchez de Meras, University of Valencia,       Spain       (CC module, Cholesky decomposition)
  Trond Saue,               Paul Sabatier University,     France      (direct Fock matrix construction)
  Stephan P. A. Sauer,      University of Copenhagen,     Denmark     (SOPPA(CCSD), SOPPA prop., AOSOPPA, vibrational g-factors)
  Bernd Schimmelpfennig,    Forschungszentrum Karlsruhe,  Germany     (AMFI module)
  Anna K. Schnack-Petersen, University of Copenhagen,     Denmark     (RPA(D) and HRPA(D) properties in AOSOPPA)
  Kristian Sneskov,         Aarhus University,            Denmark     (Polarizable embedding, QM/MM)
  Arnfinn H. Steindal,      UiT The Arctic U. of Norway,  Norway      (parallel QM/MM, polarizable embedding)
  Casper Steinmann,         Aalborg University,           Denmark     (QFIT, polarizable embedding)
  K. O. Sylvester-Hvid,     University of Copenhagen,     Denmark     (MC-SCRF)
  Peter R. Taylor,          VLSCI/Univ. of Melbourne,     Australia   (Symmetry handling ABACUS, integral transformation)
  Andrew M. Teale,          University of Nottingham,     England     (DFT-AC, DFT-D)
  David P. Tew,             University of Bristol,        England     (CCSD(R12))
  Julien Toulouse,          Sorbonne Univ.,               France      (MC-srDFT)
  Olav Vahtras,             KTH Stockholm,                Sweden      (Triplet response, spin-orbit, ESR, TDDFT, open-shell DFT)
  Lucas Visscher,           Vrije Universiteit Amsterdam, Netherlands (Frozen density embedding)
  David J. Wilson,          La Trobe University,          Australia   (DFT Hessian and DFT magnetizabilities)
  Hans Agren,               KTH Stockholm,                Sweden      (SIRIUS module, RESPONS, MC-SCRF solvation)
 --------------------------------------------------------------------------------

     Date and time (Linux)  : Tue Jul 23 13:59:01 2024
     Host name              : dn012                                   

 * Work memory size             :    64000000 =  488.28 megabytes.

 * Directories for basis set searches:
   1) /gpfs/projects/rjh/adrian/beta_paper_database/dalton/hf/PH3/dipole
   2) /gpfs/projects/rjh/adrian/dalton/build/basis


Compilation information
-----------------------

 Who compiled             | ahurtado
 Host                     | sn-mem
 System                   | Linux-3.10.0-1160.81.1.el7.x86_64
 CMake generator          | Unix Makefiles
 Processor                | x86_64
 64-bit integers          | OFF
 MPI                      | ON
 Fortran compiler         | /gpfs/software/intel/oneAPI/2021_4/mpi/2021.4.0/bi
                          | n/mpiifort
 Fortran compiler version | unknown
 C compiler               | /gpfs/software/intel/oneAPI/2021_4/mpi/2021.4.0/bi
                          | n/mpiicc
 C compiler version       | unknown
 C++ compiler             | /gpfs/software/intel/oneAPI/2021_4/mpi/2021.4.0/bi
                          | n/mpiicpc
 C++ compiler version     | unknown
 Static linking           | OFF
 Last Git revision        | 66052b3af5ea7225e31178bf9a8b031913c72190
 Git branch               | (HEAD detached at Dalton2020.0)
 Configuration time       | 2024-05-30 10:57:17.145493

 * MPI parallel run using 38 processes.


   Content of the .dal input file
 ----------------------------------

**DALTON INPUT
.RUN RESPONSE
.DIRECT
**WAVE FUNCTIONS
.HF
**PROPERTIES
**RESPONSE
*QUADRA
.DIPLEN
.FREQUENCIES
5
0.0 0.0164705 0.032941 0.0494115 0.065882
**END OF DALTON INPUT


   Content of the .mol file
 ----------------------------

BASIS
q-aug-cc-pVQZ
blah
blah
Atomtype=2 Angstrom Charge=0 Nosymmmetry
Charge=15 Atoms=1
P_a 0.000000000000 0.000000000000 0.000000000000
Charge=1 Atoms=3
H_a 0.000000000000 -1.193199998467 -0.771699999462
H_b 1.033300002415 0.596600001880 -0.771699999462
H_c -1.033300002415 0.596600001880 -0.771699999462


       *******************************************************************
       *********** Output from DALTON general input processing ***********
       *******************************************************************

 --------------------------------------------------------------------------------
   Overall default print level:    0
   Print level for DALTON.STAT:    1

    Parallel calculation using MPI
    AO-direct calculation (in sections where implemented)
    HERMIT 1- and 2-electron integral sections will be executed
    "Old" integral transformation used (limited to max 255 basis functions)
    Wave function sections will be executed (SIRIUS module)
    Dynamic molecular response properties section will be executed (RESPONSE module)
 --------------------------------------------------------------------------------


   ****************************************************************************
   *************** Output of molecule and basis set information ***************
   ****************************************************************************


    The two title cards from your ".mol" input:
    ------------------------------------------------------------------------
 1: blah                                                                    
 2: blah                                                                    
    ------------------------------------------------------------------------

  Coordinates are entered in Angstrom and converted to atomic units.
          - Conversion factor : 1 bohr = 0.52917721 A

  Atomic type no.    1
  --------------------
  Nuclear charge:  15.00000
  Number of symmetry independent centers:    1
  Number of basis sets to read;    2
  Basis set file used for this atomic type with Z =  15 :
     "/gpfs/projects/rjh/adrian/dalton/build/basis/aug-cc-pVQZ"

  Atomic type no.    2
  --------------------
  Nuclear charge:   1.00000
  Number of symmetry independent centers:    3
  Number of basis sets to read;    2
  Basis set file used for this atomic type with Z =   1 :
     "/gpfs/projects/rjh/adrian/dalton/build/basis/aug-cc-pVQZ"


                         SYMGRP: Point group information
                         -------------------------------

@    Point group: C1 


                                 Isotopic Masses
                                 ---------------

                           P_a        30.973763
                           H_a         1.007825
                           H_b         1.007825
                           H_c         1.007825

                       Total mass:    33.997238 amu
                       Natural abundance:  99.955 %

 Center-of-mass coordinates (a.u.):    0.000000    0.000000   -0.129691
 Center-of-mass coordinates (Angs):    0.000000    0.000000   -0.068630


  Atoms and basis sets
  --------------------

  Number of atom types :    2
  Total number of atoms:    4

  Basis set used is "q-aug-cc-pVQZ" from the basis set library.

  label    atoms   charge   prim   cont     basis
  ----------------------------------------------------------------------
  P_          1   15.0000   187   159      [20s15p7d6f5g|10s9p7d6f5g]                         
  H_          3    1.0000    96    94      [10s7p6d5f|8s7p6d5f]                               
  ----------------------------------------------------------------------
  total:      4   18.0000   475   441
  ----------------------------------------------------------------------
  Spherical harmonic basis used.

  Threshold for neglecting AO integrals:  1.00D-12


  Cartesian Coordinates (a.u.)
  ----------------------------

  Total number of coordinates:   12
  P_a     :     1  x   0.0000000000    2  y   0.0000000000    3  z   0.0000000000
  H_a     :     4  x   0.0000000000    5  y  -2.2548212094    6  z  -1.4583016496
  H_b     :     7  x   1.9526540095    8  y   1.1274106097    9  z  -1.4583016496
  H_c     :    10  x  -1.9526540095   11  y   1.1274106097   12  z  -1.4583016496


   Interatomic separations (in Angstrom):
   --------------------------------------

            P_a         H_a         H_b         H_c   
            ------      ------      ------      ------
 P_a   :    0.000000
 H_a   :    1.421002    0.000000
 H_b   :    1.420972    2.066662    0.000000
 H_c   :    1.420972    2.066662    2.066600    0.000000


  Max    interatomic separation is    2.0667 Angstrom (    3.9054 Bohr)
  between atoms    3 and    2, "H_b   " and "H_a   ".

  Min HX interatomic separation is    1.4210 Angstrom (    2.6852 Bohr)


  Bond distances (Angstrom):
  --------------------------

                  atom 1     atom 2       distance
                  ------     ------       --------
  bond distance:  H_a        P_a          1.421002
  bond distance:  H_b        P_a          1.420972
  bond distance:  H_c        P_a          1.420972


  Bond angles (degrees):
  ----------------------

                  atom 1     atom 2     atom 3         angle
                  ------     ------     ------         -----
  bond angle:     H_a        P_a        H_b           93.303
  bond angle:     H_a        P_a        H_c           93.303
  bond angle:     H_b        P_a        H_c           93.301




 Principal moments of inertia (u*A**2) and principal axes
 --------------------------------------------------------

   IA       3.792542          0.000000    1.000000   -0.000000
   IB       3.792715          1.000000    0.000000    0.000000
   IC       4.304428          0.000000    0.000000    1.000000


 Rotational constants
 --------------------

               A                   B                   C

         133255.9944         133249.9191         117409.1033 MHz
            4.444942            4.444739            3.916346 cm-1


@  Nuclear repulsion energy :   17.526280706353 Hartree


                     .---------------------------------------.
                     | Starting in Integral Section (HERMIT) |
                     `---------------------------------------'



 ***************************************************************************************
 ****************** Output from **INTEGRALS input processing (HERMIT) ******************
 ***************************************************************************************


 - Using defaults, no **INTEGRALS input found

 Default print level:        1

 Calculation of one-electron Hamiltonian integrals.

 Center of mass  (bohr):      0.000000000000      0.000000000297     -0.129691081968
 Operator center (bohr):      0.000000000000      0.000000000000      0.000000000000
 Gauge origin    (bohr):      0.000000000000      0.000000000000      0.000000000000
 Dipole origin   (bohr):      0.000000000000      0.000000000000      0.000000000000


     ************************************************************************
     ************************** Output from HERINT **************************
     ************************************************************************



                      Nuclear contribution to dipole moments
                      --------------------------------------

                 au               Debye          C m (/(10**-30)

      x      0.00000000         0.00000000         0.00000000
      y      0.00000001         0.00000003         0.00000008
      z     -4.37490495       -11.11989850       -37.09198882


  Time used in ONEDRV     is       0.12 seconds
  Time used in GABGEN     is       4.05 seconds
  Total CPU  time used in HERMIT:   4.57 seconds
  Total wall time used in HERMIT:   4.60 seconds


                        .----------------------------------.
                        | End of Integral Section (HERMIT) |
                        `----------------------------------'



                   .--------------------------------------------.
                   | Starting in Wave Function Section (SIRIUS) |
                   `--------------------------------------------'



@ Primary orbitals are deleted during canonical orthonormalization
@   because of detected numerical linear dependence or too large coefficients.
@ Eigenvalue threshold for num. lin. dep. =  1.00D-06

@  12 MO components are deleted in symmetry    1
 Overlap eigenvalues of the deleted orbitals:
  9.01D-07  9.01D-07  7.93D-07  5.06D-07  5.06D-07
  4.53D-07  4.53D-07  3.95D-08  2.96D-08  2.96D-08
  1.57D-08  1.57D-08

 Max MO coeff. of last deleted MO & limit:  5.37D+02  1.00D+03

WARNING: Orbitals have been deleted because of numerical
   linear dependence although not requested in input.

 *** Output from Huckel module :

     Using EWMO model:          T
     Using EHT  model:          F
     Number of Huckel orbitals each symmetry:   17

 EWMO - Energy Weighted Maximum Overlap - is a Huckel type method,
        which normally is better than Extended Huckel Theory.
 Reference: Linderberg and Ohrn, Propagators in Quantum Chemistry (Wiley, 1973)

 Huckel EWMO eigenvalues for symmetry :  1
          -79.989138      -7.539621      -5.419453      -5.419453      -5.419331
           -1.162139      -0.617917      -0.617908      -0.435032      -0.171097
           -0.171096      -0.123482      -0.055556      -0.055556      -0.055288
           -0.028356      -0.028355

 **********************************************************************
 *SIRIUS* a direct, restricted step, second order MCSCF program       *
 **********************************************************************

 
     Date and time (Linux)  : Tue Jul 23 13:59:09 2024
     Host name              : dn012                                   

 Title lines from ".mol" input file:
     blah                                                                    
     blah                                                                    

 Print level on unit LUPRI =   2 is   0
 Print level on unit LUW4  =   2 is   5

@    Restricted, closed shell Hartree-Fock calculation.

@    Time-dependent Hartree-Fock calculation (random phase approximation).
 Fock matrices are calculated directly and in parallel without use of integrals on disk.

 Initial molecular orbitals are obtained according to
 ".MOSTART EWMO  " input option

     Wave function specification
     ============================
@    Wave function type        --- HF ---
@    Number of closed shell electrons          18
@    Number of electrons in active shells       0
@    Total charge of the molecule               0

@    Spin multiplicity and 2 M_S                1         0
@    Total number of symmetries                 1 (point group: C1 )
@    Reference state symmetry                   1 (irrep name : A  )

     Orbital specifications
     ======================
@    Abelian symmetry species          All |    1
@                                          |  A  
                                       --- |  ---
@    Occupied SCF orbitals               9 |    9
@    Secondary orbitals                420 |  420
@    Total number of orbitals          429 |  429
@    Number of basis functions         441 |  441

     Optimization information
     ========================
@    Number of configurations                 1
@    Number of orbital rotations           3780
     ------------------------------------------
@    Total number of variables             3781

     Maximum number of Fock   iterations      0
     Maximum number of DIIS   iterations     60
     Maximum number of QC-SCF iterations     60
     Threshold for SCF convergence     1.00D-05

    INFORMATION: Switched to "new" integral transformation (from 1988 ;-) )
    because more than 255 basis functions.


 ***********************************************
 ***** DIIS acceleration of SCF iterations *****
 ***********************************************

 C1-DIIS algorithm; max error vectors =    8

 Iter      Total energy        Error norm    Delta(E)  DIIS dim.
 -----------------------------------------------------------------------------
   1  Screening settings (-IFTHRS, JTDIIS, DIFDEN, times)   -9    1    T  2.46D+01  2.48D+01
@  1    -342.357033483        1.21877D+00   -3.42D+02    1
      Virial theorem: -V/T =      2.002710
@    MULPOP   P_a    -0.11; H_a     0.04; H_b     0.04; H_c     0.04; 
   1  Level shift: doubly occupied orbital energies shifted by -2.00D-01
 -----------------------------------------------------------------------------
   2  Screening settings (-IFTHRS, JTDIIS, DIFDEN, times)   -9    2    T  2.63D+01  2.65D+01
@  2    -342.484164478        2.74374D-01   -1.27D-01    2
      Virial theorem: -V/T =      1.999133
@    MULPOP   P_a     0.28; H_a    -0.10; H_b    -0.09; H_c    -0.09; 
   2  Level shift: doubly occupied orbital energies shifted by -5.00D-02
 -----------------------------------------------------------------------------
   3  Screening settings (-IFTHRS, JTDIIS, DIFDEN, times)   -9    3    T  2.64D+01  2.65D+01
@  3    -342.491160651        8.01834D-02   -7.00D-03    3
      Virial theorem: -V/T =      2.000170
@    MULPOP   P_a     0.30; H_a    -0.10; H_b    -0.10; H_c    -0.10; 
   3  Level shift: doubly occupied orbital energies shifted by -2.50D-02
 -----------------------------------------------------------------------------
   4  Screening settings (-IFTHRS, JTDIIS, DIFDEN, times)  -13    4    F  2.63D+01  2.64D+01
@  4    -342.492171062        2.02590D-02   -1.01D-03    4
      Virial theorem: -V/T =      2.000085
@    MULPOP   P_a     0.32; H_a    -0.11; H_b    -0.11; H_c    -0.11; 
   4  Level shift: doubly occupied orbital energies shifted by -1.25D-02
 -----------------------------------------------------------------------------
   5  Screening settings (-IFTHRS, JTDIIS, DIFDEN, times)  -13    5    T  2.64D+01  2.66D+01
@  5    -342.492274898        4.95779D-03   -1.04D-04    5
      Virial theorem: -V/T =      2.000128
@    MULPOP   P_a     0.32; H_a    -0.11; H_b    -0.11; H_c    -0.11; 
 -----------------------------------------------------------------------------
   6  Screening settings (-IFTHRS, JTDIIS, DIFDEN, times)  -13    6    T  2.65D+01  2.66D+01
@  6    -342.492282652        7.19354D-04   -7.75D-06    6
      Virial theorem: -V/T =      2.000128
@    MULPOP   P_a     0.32; H_a    -0.11; H_b    -0.11; H_c    -0.11; 
 -----------------------------------------------------------------------------
   7  Screening settings (-IFTHRS, JTDIIS, DIFDEN, times)  -13    7    T  2.68D+01  2.70D+01
@  7    -342.492282806        1.54104D-04   -1.54D-07    7
      Virial theorem: -V/T =      2.000130
@    MULPOP   P_a     0.32; H_a    -0.11; H_b    -0.11; H_c    -0.11; 
 -----------------------------------------------------------------------------
   8  Screening settings (-IFTHRS, JTDIIS, DIFDEN, times)  -13    8    T  2.60D+01  2.61D+01
@  8    -342.492282812        3.01747D-05   -5.70D-09    8
      Virial theorem: -V/T =      2.000129
@    MULPOP   P_a     0.32; H_a    -0.11; H_b    -0.11; H_c    -0.11; 
 -----------------------------------------------------------------------------
   9  Screening settings (-IFTHRS, JTDIIS, DIFDEN, times)  -13    9    T  2.66D+01  2.68D+01
@  9    -342.492282812        3.99070D-06   -1.94D-10    8

@ *** DIIS converged in   9 iterations !
@     Converged SCF energy, gradient:   -342.492282812215    3.99D-06
    - total time used in SIRFCK :              0.00 seconds


 *** SCF orbital energy analysis ***

 Only the 20 lowest virtual orbital energies printed in each symmetry.

 Number of electrons :   18
 Orbital occupations :    9

 Sym       Hartree-Fock orbital energies

1 A     -79.94494282    -7.48801893    -5.38173157    -5.38173146    -5.38076573
         -0.85390394    -0.52034927    -0.52034826    -0.38876360     0.00051219
          0.00087218     0.00087218     0.00204230     0.00255580     0.00312248
          0.00312248     0.00466726     0.00466727     0.00483133     0.00483134
          0.00515520     0.00650398     0.00738716     0.00741544     0.00764057
          0.00764058     0.01080812     0.01120605     0.01120607

    E(LUMO) :     0.00051219 au (symmetry 1)
  - E(HOMO) :    -0.38876360 au (symmetry 1)
  ------------------------------------------
    gap     :     0.38927579 au

 --- Writing SIRIFC interface file

 CPU and wall time for SCF :     238.665     240.053


                       .-----------------------------------.
                       | --- Final results from SIRIUS --- |
                       `-----------------------------------'


@    Spin multiplicity:           1
@    Spatial symmetry:            1 ( irrep  A   in C1  )
@    Total charge of molecule:    0

@    Final HF energy:            -342.492282812215                 
@    Nuclear repulsion:            17.526280706353
@    Electronic energy:          -360.018563518568

@    Final gradient norm:           0.000003990695

 
     Date and time (Linux)  : Tue Jul 23 14:03:09 2024
     Host name              : dn012                                   

File label for MO orbitals:  23Jul24   FOCKDIIS

 (Only coefficients > 0.0100 are printed.)

 Molecular orbitals for symmetry species 1  (A  )
 ------------------------------------------------

    Orbital         1        2        3        4        5        6        7
   1 P_a :1s    -0.9999  -0.0002   0.0000   0.0000  -0.0006  -0.0000  -0.0000
   2 P_a :1s     0.0009   0.9994   0.0000   0.0000  -0.0084  -0.0109  -0.0000
   3 P_a :1s     0.0021   0.0010   0.0000   0.0000  -0.0039   0.7922   0.0000
   4 P_a :1s     0.0004   0.0071   0.0000   0.0000   0.0055  -0.0282  -0.0000
   5 P_a :1s    -0.0020  -0.0159  -0.0000  -0.0000  -0.0025  -0.0079   0.0000
   6 P_a :1s    -0.0028   0.0002  -0.0000  -0.0000  -0.0159   0.0900   0.0000
   7 P_a :1s    -0.0011   0.0055   0.0000  -0.0000  -0.0031   0.0392   0.0000
   8 P_a :1s     0.0000  -0.0003  -0.0000   0.0000   0.0020  -0.0292   0.0000
  11 P_a :2px    0.0000  -0.0000  -1.0016   0.0000   0.0000  -0.0000   0.0000
  12 P_a :2py   -0.0000  -0.0000   0.0000   1.0016  -0.0000  -0.0000   0.0190
  13 P_a :2pz    0.0009  -0.0118   0.0000  -0.0000  -0.9915   0.0146  -0.0000
  15 P_a :2py   -0.0000  -0.0000   0.0000   0.0076  -0.0000   0.0000  -0.6342
  16 P_a :2pz    0.0031  -0.0289   0.0000   0.0000   0.0354  -0.1281   0.0000
  18 P_a :2py    0.0000   0.0000   0.0000  -0.0008   0.0000  -0.0000  -0.0141
  19 P_a :2pz   -0.0015   0.0089  -0.0000  -0.0000  -0.0121  -0.0003   0.0000
  20 P_a :2px   -0.0000  -0.0000   0.0148  -0.0000   0.0000  -0.0000   0.0000
  21 P_a :2py    0.0000   0.0000  -0.0000  -0.0148   0.0000  -0.0000   0.1491
  22 P_a :2pz   -0.0008   0.0217  -0.0000  -0.0000  -0.0098  -0.0199  -0.0000
  24 P_a :2py    0.0000   0.0000   0.0000  -0.0095   0.0000  -0.0000   0.1687
  25 P_a :2pz   -0.0001   0.0049  -0.0000  -0.0000  -0.0043  -0.0119  -0.0000
  28 P_a :2pz    0.0001  -0.0008  -0.0000  -0.0000  -0.0020   0.0386  -0.0000
  30 P_a :2py   -0.0000   0.0000   0.0000   0.0004  -0.0000   0.0000   0.0176
  31 P_a :2pz   -0.0001   0.0001  -0.0000  -0.0000  -0.0008   0.0212  -0.0000
  39 P_a :3d1-  -0.0000   0.0000  -0.0000  -0.0012   0.0000  -0.0000   0.0305
  42 P_a :3d2+   0.0000  -0.0000   0.0000  -0.0003   0.0000   0.0000  -0.0232
  44 P_a :3d1-  -0.0000  -0.0000   0.0000   0.0022  -0.0000  -0.0000   0.0333
  47 P_a :3d2+   0.0000   0.0000  -0.0000   0.0003  -0.0000   0.0000  -0.0265
  54 P_a :3d1-   0.0000  -0.0000  -0.0000   0.0016   0.0000  -0.0000  -0.0300
  57 P_a :3d2+   0.0000   0.0000   0.0000  -0.0029   0.0000  -0.0000   0.0176
  59 P_a :3d1-   0.0000   0.0000  -0.0000   0.0009  -0.0000   0.0000  -0.0163
  60 P_a :3d0   -0.0000   0.0009   0.0000   0.0000   0.0015  -0.0131   0.0000
  62 P_a :3d2+   0.0000   0.0000   0.0000  -0.0014   0.0000   0.0000   0.0122
  80 P_a :4f3-  -0.0002  -0.0009  -0.0000   0.0000   0.0001   0.0145  -0.0000
  83 P_a :4f0   -0.0002  -0.0008  -0.0000   0.0000  -0.0005   0.0131  -0.0000
 160 H_a :1s     0.0001   0.0005   0.0000  -0.0015   0.0013   0.3424   0.6705
 161 H_a :1s     0.0000   0.0000  -0.0000  -0.0001  -0.0002  -0.0120  -0.0174
 162 H_a :1s     0.0006   0.0051   0.0000  -0.0084   0.0035  -0.0999  -0.0033
 163 H_a :1s     0.0006  -0.0016   0.0000  -0.0085   0.0038  -0.1289   0.0621
 172 H_a :2py   -0.0000   0.0003   0.0000  -0.0005   0.0002   0.0067   0.0108
 175 H_a :2py    0.0001   0.0019   0.0000  -0.0024   0.0019   0.0002   0.0422
 176 H_a :2pz    0.0001   0.0014   0.0000  -0.0014  -0.0001  -0.0008   0.0308
 178 H_a :2py    0.0001  -0.0006  -0.0000  -0.0018   0.0013  -0.0115   0.0355
 179 H_a :2pz    0.0000   0.0003   0.0000   0.0003   0.0008  -0.0101   0.0287
 181 H_a :2py    0.0002  -0.0012  -0.0000  -0.0009   0.0012  -0.0061  -0.0119
 182 H_a :2pz    0.0001   0.0001  -0.0000   0.0043   0.0005  -0.0163   0.0109
 184 H_a :2py   -0.0001  -0.0000  -0.0000  -0.0010  -0.0004   0.0109  -0.0056
 205 H_a :3d1-   0.0000   0.0002   0.0000  -0.0003   0.0001   0.0020   0.0205
 208 H_a :3d2+  -0.0000  -0.0003  -0.0000  -0.0000  -0.0004  -0.0008  -0.0155
 213 H_a :3d2+   0.0001  -0.0002  -0.0000   0.0000   0.0006  -0.0016  -0.0143
 218 H_a :3d2+   0.0000  -0.0000  -0.0000  -0.0002   0.0000  -0.0001  -0.0106
 254 H_b :1s     0.0001   0.0005  -0.0013   0.0007   0.0013   0.3424  -0.3353
 255 H_b :1s     0.0000   0.0000  -0.0001   0.0000  -0.0002  -0.0120   0.0087
 256 H_b :1s     0.0006   0.0051  -0.0072   0.0042   0.0035  -0.0999   0.0017
 257 H_b :1s     0.0006  -0.0016  -0.0073   0.0042   0.0038  -0.1289  -0.0310
 268 H_b :2px   -0.0001  -0.0016   0.0016  -0.0015  -0.0017  -0.0002   0.0211
 270 H_b :2pz    0.0001   0.0014  -0.0012   0.0007  -0.0001  -0.0008  -0.0154
 271 H_b :2px   -0.0001   0.0005   0.0015  -0.0005  -0.0011   0.0100   0.0180
 273 H_b :2pz    0.0000   0.0003   0.0003  -0.0002   0.0008  -0.0101  -0.0144
 276 H_b :2pz    0.0001   0.0001   0.0037  -0.0021   0.0005  -0.0163  -0.0055
 299 H_b :3d1-  -0.0000  -0.0001   0.0003   0.0001  -0.0001  -0.0010   0.0100
 348 H_c :1s     0.0001   0.0005   0.0013   0.0007   0.0013   0.3424  -0.3352
 349 H_c :1s     0.0000   0.0000   0.0001   0.0000  -0.0002  -0.0120   0.0087
 350 H_c :1s     0.0006   0.0051   0.0072   0.0042   0.0035  -0.0999   0.0017
 351 H_c :1s     0.0006  -0.0016   0.0073   0.0042   0.0038  -0.1289  -0.0310
 362 H_c :2px    0.0001   0.0016   0.0016   0.0015   0.0017   0.0002  -0.0211
 364 H_c :2pz    0.0001   0.0014   0.0012   0.0007  -0.0001  -0.0008  -0.0154
 365 H_c :2px    0.0001  -0.0005   0.0015   0.0005   0.0011  -0.0100  -0.0180
 367 H_c :2pz    0.0000   0.0003  -0.0003  -0.0002   0.0008  -0.0101  -0.0144
 370 H_c :2pz    0.0001   0.0001  -0.0037  -0.0021   0.0005  -0.0163  -0.0055
 393 H_c :3d1-  -0.0000  -0.0001  -0.0003   0.0001  -0.0001  -0.0010   0.0100

    Orbital         8        9       10       11       12       13       14
   3 P_a :1s    -0.0000  -0.4271  -0.0080  -0.0000   0.0000   0.0012  -0.0230
   4 P_a :1s    -0.0000  -0.0114   0.0017   0.0000  -0.0000  -0.0082  -0.0062
   5 P_a :1s     0.0000  -0.0028   0.0091  -0.0000   0.0000   0.0408  -0.0270
   6 P_a :1s     0.0000  -0.1957  -0.0792   0.0000   0.0000   0.2690   0.2671
   7 P_a :1s     0.0000   0.0080  -0.2724   0.0000   0.0000   0.0973   0.8243
   8 P_a :1s    -0.0000   0.0220  -1.4649   0.0000  -0.0000  -0.8367   4.3765
   9 P_a :1s    -0.0000   0.0006  -0.8212  -0.0000  -0.0000  -0.2321   2.3204
  10 P_a :1s     0.0000  -0.0130   7.1174  -0.0000   0.0000   9.5737 -24.0558
  11 P_a :2px   -0.0190  -0.0000   0.0000  -0.0000   0.0008   0.0000   0.0000
  14 P_a :2px    0.6343  -0.0000   0.0000  -0.0000   0.0037   0.0000   0.0000
  16 P_a :2pz   -0.0000  -0.8550   0.0061   0.0000   0.0000   0.0009   0.0006
  17 P_a :2px    0.0141   0.0000  -0.0000   0.0000  -0.0015  -0.0000  -0.0000
  19 P_a :2pz    0.0000   0.0197  -0.0019  -0.0000  -0.0000  -0.0019   0.0053
  20 P_a :2px   -0.1491  -0.0000  -0.0000   0.0000  -0.0045   0.0000  -0.0000
  22 P_a :2pz   -0.0000   0.0722   0.0043  -0.0000  -0.0000  -0.0274  -0.0162
  23 P_a :2px   -0.1687  -0.0000  -0.0000  -0.0000   0.0138   0.0000   0.0000
  24 P_a :2py    0.0000  -0.0000  -0.0000  -0.0138  -0.0000   0.0000   0.0000
  25 P_a :2pz   -0.0000   0.0194   0.0501  -0.0000  -0.0000   0.0196  -0.1479
  26 P_a :2px   -0.0058   0.0000   0.0000   0.0000   0.1698  -0.0000  -0.0000
  27 P_a :2py    0.0000   0.0000  -0.0000  -0.1698   0.0000   0.0000   0.0000
  28 P_a :2pz   -0.0000  -0.0004  -0.1098  -0.0000  -0.0000   0.5898   0.4562
  29 P_a :2px   -0.0176  -0.0000   0.0000  -0.0000   0.4833   0.0000   0.0000
  30 P_a :2py    0.0000   0.0000   0.0000  -0.4833   0.0000   0.0000   0.0000
  31 P_a :2pz    0.0000   0.0167  -0.0053  -0.0000   0.0000   1.4284   0.2760
  32 P_a :2px   -0.0040  -0.0000   0.0000   0.0000   1.1366   0.0000  -0.0000
  33 P_a :2py    0.0000   0.0000   0.0000  -1.1366   0.0000  -0.0000   0.0000
  34 P_a :2pz   -0.0000   0.0048   0.0088   0.0000   0.0000   2.8032   0.3909
  35 P_a :2px    0.0001  -0.0000  -0.0000   0.0000   1.4723   0.0000  -0.0000
  36 P_a :2py    0.0000   0.0000   0.0000  -1.4723   0.0000  -0.0000   0.0000
  37 P_a :2pz   -0.0000   0.0005  -0.1763   0.0000   0.0000   2.7637   0.9041
  38 P_a :3d2-   0.0232   0.0000  -0.0000  -0.0000   0.0001   0.0000   0.0000
  41 P_a :3d1+  -0.0305  -0.0000  -0.0000   0.0000  -0.0001  -0.0000  -0.0000
  43 P_a :3d2-   0.0265   0.0000   0.0000   0.0000  -0.0005   0.0000  -0.0000
  46 P_a :3d1+  -0.0333  -0.0000  -0.0000  -0.0000   0.0006  -0.0000   0.0000
  50 P_a :3d0    0.0000  -0.0039   0.0040   0.0000   0.0000  -0.0061  -0.0132
  53 P_a :3d2-  -0.0176  -0.0000  -0.0000   0.0000   0.0047   0.0000  -0.0000
  54 P_a :3d1-  -0.0000   0.0000   0.0000   0.0186  -0.0000  -0.0000  -0.0000
  55 P_a :3d0    0.0000   0.0005   0.0156   0.0000   0.0000  -0.0178  -0.0539
  56 P_a :3d1+   0.0300   0.0000  -0.0000  -0.0000  -0.0186  -0.0000  -0.0000
  58 P_a :3d2-  -0.0122  -0.0000   0.0000  -0.0000  -0.0221   0.0000   0.0000
  59 P_a :3d1-  -0.0000  -0.0000   0.0000   0.1225   0.0000  -0.0000  -0.0000
  60 P_a :3d0    0.0000  -0.0222   0.2518   0.0000   0.0000  -0.1699  -0.8357
  61 P_a :3d1+   0.0163   0.0000  -0.0000  -0.0000  -0.1225  -0.0000  -0.0000
  62 P_a :3d2+   0.0000  -0.0000   0.0000   0.0221   0.0000  -0.0000  -0.0000
  63 P_a :3d2-  -0.0020   0.0000   0.0000  -0.0000  -0.0227   0.0000   0.0000
  64 P_a :3d1-  -0.0000   0.0000   0.0000   0.0643  -0.0000  -0.0000  -0.0000
  65 P_a :3d0    0.0000  -0.0091  -0.0112  -0.0000   0.0000  -0.4013  -0.0744
  66 P_a :3d1+   0.0071  -0.0000  -0.0000  -0.0000  -0.0643  -0.0000  -0.0000
  67 P_a :3d2+   0.0000  -0.0000  -0.0000   0.0227   0.0000  -0.0000   0.0000
  68 P_a :3d2-  -0.0010   0.0000   0.0000  -0.0000  -0.0188   0.0000   0.0000
  69 P_a :3d1-  -0.0000   0.0000   0.0000   0.0149  -0.0000  -0.0000  -0.0000
  70 P_a :3d0   -0.0000  -0.0036   0.2956  -0.0000   0.0000   0.1044  -1.0828
  71 P_a :3d1+   0.0036   0.0000  -0.0000  -0.0000  -0.0149   0.0000  -0.0000
  72 P_a :3d2+  -0.0000  -0.0000   0.0000   0.0188  -0.0000  -0.0000  -0.0000
  87 P_a :4f3-  -0.0000   0.0040  -0.0074   0.0000  -0.0000  -0.0028   0.0225
  90 P_a :4f0   -0.0000   0.0050  -0.0056   0.0000  -0.0000  -0.0037   0.0167
  94 P_a :4f3-  -0.0000  -0.0010  -0.0109  -0.0000  -0.0000   0.0086   0.0366
  97 P_a :4f0   -0.0000  -0.0030  -0.0033  -0.0000  -0.0000   0.0001   0.0111
 101 P_a :4f3-   0.0000   0.0064  -0.0242   0.0000  -0.0000   0.0175   0.0707
 102 P_a :4f2-   0.0009  -0.0000   0.0000  -0.0000  -0.0137  -0.0000  -0.0000
 104 P_a :4f0   -0.0000   0.0016  -0.0137   0.0000  -0.0000   0.0507   0.0538
 106 P_a :4f2+   0.0000   0.0000   0.0000   0.0137   0.0000   0.0000   0.0000
 108 P_a :4f3-   0.0000   0.0026  -0.0102   0.0000  -0.0000  -0.0431   0.0364
 109 P_a :4f2-   0.0011   0.0000   0.0000  -0.0000   0.0137  -0.0000  -0.0000
 110 P_a :4f1-   0.0000  -0.0000   0.0000   0.0217   0.0000   0.0000  -0.0000
 111 P_a :4f0    0.0000  -0.0008   0.0451  -0.0000   0.0000  -0.0173  -0.1432
 112 P_a :4f1+  -0.0026   0.0000  -0.0000  -0.0000  -0.0217  -0.0000  -0.0000
 113 P_a :4f2+   0.0000  -0.0000   0.0000  -0.0137  -0.0000   0.0000  -0.0000
 155 P_a :5g0   -0.0000   0.0004  -0.0091  -0.0000  -0.0000  -0.0047   0.0274
 160 H_a :1s     0.0001   0.2425  -0.0001   0.0006   0.0000   0.0009  -0.0005
 162 H_a :1s    -0.0000  -0.0373   0.0111  -0.0019  -0.0000  -0.0090  -0.0329
 163 H_a :1s     0.0000  -0.0114   0.0633   0.0123  -0.0000  -0.0216  -0.1934
 164 H_a :1s     0.0000  -0.0073   0.3241  -0.0177   0.0000   0.2178  -0.9638
 165 H_a :1s     0.0000  -0.0022   0.3096   0.0704   0.0000   0.2579  -0.8758
 166 H_a :1s    -0.0000   0.0042  -2.3539   0.4202  -0.0000  -3.1228   7.9855
 167 H_a :1s     0.0000  -0.0000   0.5178 -21.0430   0.0001   0.1676  -0.5730
 178 H_a :2py    0.0000   0.0134  -0.0033   0.0254  -0.0000  -0.0349   0.0033
 179 H_a :2pz    0.0000   0.0077   0.0086   0.0084  -0.0000  -0.0427  -0.0355
 180 H_a :2px    0.0072   0.0000  -0.0000  -0.0000  -0.0677   0.0000   0.0000
 181 H_a :2py   -0.0000   0.0151  -0.1379   0.0654  -0.0000  -0.0503   0.4196
 182 H_a :2pz    0.0000  -0.0102   0.1369   0.1142   0.0000  -0.2256  -0.4760
 183 H_a :2px    0.0065   0.0000  -0.0000   0.0000  -0.2294  -0.0000  -0.0000
 184 H_a :2py   -0.0000   0.0022   0.6086   0.1621  -0.0000   0.4235  -1.8437
 185 H_a :2pz   -0.0000  -0.0056   0.1001  -0.1214  -0.0000  -0.5994  -0.4394
 186 H_a :2px   -0.0011   0.0000   0.0000  -0.0000  -0.6732   0.0000   0.0000
 187 H_a :2py    0.0000   0.0081  -1.1722   0.5606   0.0000  -2.4261   4.0822
 188 H_a :2pz   -0.0000  -0.0003  -0.1263  -0.6275  -0.0000  -1.5003   0.2102
 205 H_a :3d1-   0.0000   0.0075  -0.0039   0.0047  -0.0000  -0.0227   0.0089
 208 H_a :3d2+  -0.0000  -0.0047   0.0014  -0.0110   0.0000   0.0184  -0.0004
 209 H_a :3d2-  -0.0086  -0.0000  -0.0000   0.0000  -0.0713  -0.0000  -0.0000
 210 H_a :3d1-  -0.0000   0.0052  -0.0345  -0.0304  -0.0000  -0.0947   0.0994
 211 H_a :3d0    0.0000   0.0038  -0.0417   0.0297  -0.0000   0.0254   0.1413
 213 H_a :3d2+  -0.0000   0.0029  -0.0179  -0.0838  -0.0000   0.0354   0.0526
 214 H_a :3d2-  -0.0096   0.0000   0.0000  -0.0000  -0.3530   0.0000   0.0000
 215 H_a :3d1-   0.0000   0.0038  -0.1860  -0.0254   0.0000  -0.3620   0.5932
 216 H_a :3d0    0.0000   0.0015  -0.0803   0.1166   0.0000  -0.0313   0.2733
 217 H_a :3d1+  -0.0021  -0.0000  -0.0000  -0.0000  -0.0267   0.0000   0.0000
 218 H_a :3d2+  -0.0000  -0.0023   0.1074  -0.3540  -0.0000   0.1986  -0.3433
 240 H_a :4f3-  -0.0000  -0.0008  -0.0095  -0.0023  -0.0000  -0.0010   0.0296
 242 H_a :4f1-  -0.0000   0.0010  -0.0061  -0.0077  -0.0000   0.0002   0.0200
 243 H_a :4f0   -0.0000  -0.0002  -0.0074   0.0041  -0.0000  -0.0001   0.0225
 247 H_a :4f3-  -0.0000  -0.0013   0.0330  -0.0281  -0.0000   0.0558  -0.1040
 249 H_a :4f1-  -0.0000   0.0007  -0.0171  -0.0053  -0.0000   0.0167   0.0592
 250 H_a :4f0    0.0000  -0.0000   0.0036   0.0111   0.0000   0.0467  -0.0071
 251 H_a :4f1+   0.0013   0.0000   0.0000   0.0000   0.0192   0.0000   0.0000
 252 H_a :4f2+  -0.0000   0.0000   0.0101   0.0074  -0.0000   0.0159  -0.0311
 253 H_a :4f3+   0.0017  -0.0000  -0.0000   0.0000   0.0273   0.0000  -0.0000
 254 H_b :1s     0.5807   0.2425  -0.0001  -0.0003   0.0005   0.0009  -0.0005
 255 H_b :1s    -0.0151  -0.0055  -0.0002   0.0000  -0.0000   0.0004   0.0006
 256 H_b :1s    -0.0029  -0.0373   0.0111   0.0009  -0.0016  -0.0090  -0.0329
 257 H_b :1s     0.0538  -0.0114   0.0633  -0.0061   0.0106  -0.0216  -0.1934
 258 H_b :1s     0.0004  -0.0073   0.3241   0.0089  -0.0153   0.2178  -0.9638
 259 H_b :1s     0.0003  -0.0022   0.3096  -0.0352   0.0610   0.2579  -0.8758
 260 H_b :1s    -0.0007   0.0042  -2.3539  -0.2101   0.3639  -3.1228   7.9854
 261 H_b :1s    -0.0001  -0.0000   0.5177  10.5215 -18.2246   0.1676  -0.5732
 268 H_b :2px   -0.0300  -0.0039  -0.0014   0.0004  -0.0016   0.0058   0.0060
 269 H_b :2py   -0.0211  -0.0022  -0.0008   0.0011  -0.0004   0.0033   0.0035
 270 H_b :2pz    0.0267  -0.0088   0.0020  -0.0003   0.0005  -0.0058  -0.0076
 271 H_b :2px   -0.0251  -0.0116   0.0029   0.0070  -0.0214   0.0302  -0.0029
 272 H_b :2py   -0.0180  -0.0067   0.0017   0.0133  -0.0070   0.0174  -0.0017
 273 H_b :2pz    0.0249   0.0077   0.0086  -0.0042   0.0073  -0.0427  -0.0355
 274 H_b :2px    0.0107  -0.0130   0.1195  -0.0010  -0.0660   0.0436  -0.3634
 275 H_b :2py    0.0020  -0.0075   0.0690   0.0671   0.0010   0.0252  -0.2098
 276 H_b :2pz    0.0095  -0.0102   0.1368  -0.0571   0.0989  -0.2256  -0.4759
 277 H_b :2px    0.0058  -0.0019  -0.5270  -0.0292  -0.1789  -0.3667   1.5966
 278 H_b :2py   -0.0004  -0.0011  -0.3043   0.2126   0.0292  -0.2117   0.9218
 279 H_b :2pz    0.0006  -0.0056   0.1001   0.0607  -0.1051  -0.5994  -0.4394
 280 H_b :2px    0.0004  -0.0070   1.0151  -0.0487  -0.5887   2.1012  -3.5354
 281 H_b :2py    0.0009  -0.0040   0.5861   0.6450   0.0486   1.2131  -2.0411
 282 H_b :2pz   -0.0078  -0.0003  -0.1263   0.3138  -0.5435  -1.5002   0.2102
 298 H_b :3d2-   0.0119   0.0040  -0.0012  -0.0080   0.0064  -0.0160   0.0003
 299 H_b :3d1-  -0.0060  -0.0037   0.0020   0.0001  -0.0027   0.0114  -0.0044
 301 H_b :3d1+  -0.0170  -0.0065   0.0034   0.0027  -0.0032   0.0197  -0.0077
 303 H_b :3d2-   0.0086  -0.0025   0.0155  -0.0672   0.0450  -0.0306  -0.0456
 304 H_b :3d1-  -0.0008  -0.0026   0.0173  -0.0003   0.0174   0.0473  -0.0497
 305 H_b :3d0   -0.0012   0.0038  -0.0417  -0.0148   0.0257   0.0254   0.1413
 306 H_b :3d1+  -0.0057  -0.0045   0.0299  -0.0174   0.0203   0.0820  -0.0861
 307 H_b :3d2+   0.0099  -0.0015   0.0089   0.0326   0.0672  -0.0177  -0.0263
 308 H_b :3d2-   0.0056   0.0020  -0.0930  -0.3061   0.1772  -0.1720   0.2973
 309 H_b :3d1-   0.0005  -0.0019   0.0930   0.0137   0.0226   0.1810  -0.2966
 310 H_b :3d0    0.0001   0.0015  -0.0803  -0.0583   0.1010  -0.0313   0.2733
 311 H_b :3d1+  -0.0012  -0.0033   0.1611  -0.0226   0.0124   0.3135  -0.5137
 312 H_b :3d2+   0.0087   0.0012  -0.0537   0.1763   0.3061  -0.0993   0.1717
 334 H_b :4f3-  -0.0027  -0.0008  -0.0095   0.0011  -0.0020  -0.0010   0.0296
 337 H_b :4f0   -0.0021  -0.0002  -0.0074  -0.0021   0.0036  -0.0001   0.0225
 338 H_b :4f1+   0.0008  -0.0009   0.0053  -0.0014   0.0069  -0.0002  -0.0173
 341 H_b :4f3-  -0.0009  -0.0013   0.0330   0.0140  -0.0243   0.0558  -0.1040
 342 H_b :4f2-  -0.0005  -0.0000  -0.0087   0.0012  -0.0067  -0.0137   0.0269
 343 H_b :4f1-  -0.0001  -0.0004   0.0085  -0.0157  -0.0060  -0.0083  -0.0296
 344 H_b :4f0    0.0001  -0.0000   0.0036  -0.0055   0.0096   0.0467  -0.0071
 345 H_b :4f1+   0.0011  -0.0006   0.0148   0.0060   0.0088  -0.0145  -0.0513
 346 H_b :4f2+  -0.0002  -0.0000  -0.0050   0.0052  -0.0012  -0.0079   0.0155
 347 H_b :4f3+  -0.0008  -0.0000  -0.0000  -0.0236  -0.0136   0.0000  -0.0000
 348 H_c :1s    -0.5807   0.2425  -0.0001  -0.0003  -0.0005   0.0009  -0.0005
 349 H_c :1s     0.0151  -0.0055  -0.0002   0.0000   0.0000   0.0004   0.0006
 350 H_c :1s     0.0029  -0.0373   0.0111   0.0009   0.0016  -0.0090  -0.0329
 351 H_c :1s    -0.0538  -0.0114   0.0633  -0.0061  -0.0106  -0.0216  -0.1934
 352 H_c :1s    -0.0004  -0.0073   0.3241   0.0089   0.0153   0.2178  -0.9638
 353 H_c :1s    -0.0003  -0.0022   0.3096  -0.0352  -0.0610   0.2579  -0.8758
 354 H_c :1s     0.0007   0.0042  -2.3539  -0.2101  -0.3639  -3.1228   7.9854
 355 H_c :1s     0.0001  -0.0000   0.5177  10.5216  18.2245   0.1676  -0.5732
 362 H_c :2px   -0.0300   0.0039   0.0014  -0.0004  -0.0016  -0.0058  -0.0060
 363 H_c :2py    0.0211  -0.0022  -0.0008   0.0011   0.0004   0.0033   0.0035
 364 H_c :2pz   -0.0267  -0.0088   0.0020  -0.0003  -0.0005  -0.0058  -0.0076
 365 H_c :2px   -0.0251   0.0116  -0.0029  -0.0070  -0.0214  -0.0302   0.0029
 366 H_c :2py    0.0180  -0.0067   0.0017   0.0133   0.0070   0.0174  -0.0017
 367 H_c :2pz   -0.0249   0.0077   0.0086  -0.0042  -0.0073  -0.0427  -0.0355
 368 H_c :2px    0.0107   0.0130  -0.1195   0.0010  -0.0660  -0.0436   0.3634
 369 H_c :2py   -0.0020  -0.0075   0.0690   0.0671  -0.0010   0.0252  -0.2098
 370 H_c :2pz   -0.0095  -0.0102   0.1368  -0.0571  -0.0989  -0.2256  -0.4759
 371 H_c :2px    0.0058   0.0019   0.5270   0.0292  -0.1789   0.3667  -1.5966
 372 H_c :2py    0.0004  -0.0011  -0.3043   0.2126  -0.0292  -0.2117   0.9218
 373 H_c :2pz   -0.0006  -0.0056   0.1001   0.0607   0.1051  -0.5994  -0.4394
 374 H_c :2px    0.0004   0.0070  -1.0152   0.0487  -0.5887  -2.1012   3.5354
 375 H_c :2py   -0.0009  -0.0040   0.5861   0.6450  -0.0486   1.2131  -2.0411
 376 H_c :2pz    0.0078  -0.0003  -0.1263   0.3138   0.5435  -1.5002   0.2103
 392 H_c :3d2-   0.0119  -0.0040   0.0012   0.0080   0.0064   0.0160  -0.0003
 393 H_c :3d1-   0.0061  -0.0037   0.0020   0.0001   0.0027   0.0114  -0.0044
 395 H_c :3d1+  -0.0170   0.0065  -0.0034  -0.0027  -0.0032  -0.0197   0.0077
 397 H_c :3d2-   0.0086   0.0026  -0.0155   0.0672   0.0450   0.0306   0.0456
 398 H_c :3d1-   0.0008  -0.0026   0.0173  -0.0003  -0.0174   0.0473  -0.0497
 399 H_c :3d0    0.0012   0.0038  -0.0418  -0.0148  -0.0257   0.0254   0.1413
 400 H_c :3d1+  -0.0057   0.0045  -0.0299   0.0174   0.0203  -0.0820   0.0861
 401 H_c :3d2+  -0.0099  -0.0015   0.0089   0.0326  -0.0672  -0.0177  -0.0263
 402 H_c :3d2-   0.0056  -0.0020   0.0930   0.3061   0.1772   0.1720  -0.2973
 403 H_c :3d1-  -0.0005  -0.0019   0.0930   0.0137  -0.0226   0.1810  -0.2966
 404 H_c :3d0   -0.0001   0.0015  -0.0803  -0.0583  -0.1010  -0.0313   0.2733
 405 H_c :3d1+  -0.0012   0.0033  -0.1611   0.0226   0.0124  -0.3135   0.5137
 406 H_c :3d2+  -0.0087   0.0012  -0.0537   0.1763  -0.3061  -0.0993   0.1716
 428 H_c :4f3-   0.0027  -0.0008  -0.0095   0.0011   0.0020  -0.0010   0.0296
 431 H_c :4f0    0.0021  -0.0002  -0.0074  -0.0021  -0.0036  -0.0001   0.0225
 432 H_c :4f1+   0.0008   0.0009  -0.0053   0.0014   0.0069   0.0002   0.0173
 435 H_c :4f3-   0.0009  -0.0013   0.0330   0.0140   0.0243   0.0558  -0.1040
 436 H_c :4f2-  -0.0005   0.0000   0.0087  -0.0012  -0.0067   0.0137  -0.0269
 437 H_c :4f1-   0.0001  -0.0004   0.0085  -0.0157   0.0060  -0.0083  -0.0296
 438 H_c :4f0   -0.0001  -0.0000   0.0036  -0.0055  -0.0096   0.0467  -0.0071
 439 H_c :4f1+   0.0011   0.0006  -0.0148  -0.0060   0.0088   0.0145   0.0513
 440 H_c :4f2+   0.0002  -0.0000  -0.0050   0.0052   0.0012  -0.0079   0.0155
 441 H_c :4f3+  -0.0008  -0.0000  -0.0000   0.0236  -0.0136   0.0000  -0.0000

    Orbital        15       16       17       18       19
  23 P_a :2px    0.0000   0.0347   0.1049  -0.0000   0.0000
  24 P_a :2py    0.0347  -0.0000  -0.0000  -0.1049   0.0207
  26 P_a :2px    0.0000   0.4028   0.6690  -0.0000   0.0000
  27 P_a :2py    0.4028  -0.0000  -0.0000  -0.6691  -0.0538
  29 P_a :2px    0.0000   1.2478   0.4650   0.0000  -0.0000
  30 P_a :2py    1.2478  -0.0000  -0.0000  -0.4650  -1.0702
  32 P_a :2px    0.0000   3.2369   0.4625   0.0000  -0.0000
  33 P_a :2py    3.2369  -0.0000  -0.0000  -0.4626  -0.2961
  35 P_a :2px    0.0000   4.6269  -0.0627   0.0000  -0.0000
  36 P_a :2py    4.6269  -0.0000  -0.0000   0.0628  -0.5683
  49 P_a :3d1-  -0.0039   0.0000   0.0000   0.0152   0.0223
  51 P_a :3d1+   0.0000  -0.0039  -0.0152   0.0000   0.0000
  53 P_a :3d2-  -0.0000   0.0195  -0.1315   0.0000  -0.0000
  54 P_a :3d1-  -0.0419   0.0000   0.0000   0.1730   0.1978
  56 P_a :3d1+   0.0000  -0.0419  -0.1730   0.0000   0.0000
  57 P_a :3d2+   0.0195  -0.0000   0.0000   0.1314  -0.0630
  58 P_a :3d2-   0.0000   0.0464  -2.2052   0.0000  -0.0000
  59 P_a :3d1-  -0.2917   0.0000   0.0000   0.9255   1.4869
  61 P_a :3d1+   0.0000  -0.2917  -0.9255   0.0000   0.0000
  62 P_a :3d2+   0.0464   0.0000   0.0000   2.2051   0.0352
  63 P_a :3d2-  -0.0000   0.0567  -1.7757   0.0000  -0.0000
  64 P_a :3d1-  -0.1820   0.0000   0.0000   0.6060   1.7743
  66 P_a :3d1+   0.0000  -0.1820  -0.6060   0.0000   0.0001
  67 P_a :3d2+   0.0567   0.0000   0.0000   1.7757  -0.3086
  68 P_a :3d2-  -0.0000   0.2091  -6.3250   0.0000  -0.0001
  69 P_a :3d1-   0.0766  -0.0000  -0.0000   1.9260   5.4047
  71 P_a :3d1+   0.0000   0.0766  -1.9260   0.0000   0.0002
  72 P_a :3d2+   0.2091   0.0000   0.0001   6.3249  -1.3426
  88 P_a :4f2-   0.0000  -0.0046   0.0190  -0.0000   0.0000
  89 P_a :4f1-   0.0011   0.0000  -0.0000  -0.0196  -0.0294
  91 P_a :4f1+  -0.0000   0.0011   0.0196  -0.0000  -0.0000
  92 P_a :4f2+  -0.0046   0.0000  -0.0000  -0.0190   0.0162
  95 P_a :4f2-  -0.0000  -0.0096   0.1382  -0.0000   0.0000
  96 P_a :4f1-   0.0091  -0.0000  -0.0000  -0.1088  -0.1366
  98 P_a :4f1+  -0.0000   0.0091   0.1088  -0.0000  -0.0000
  99 P_a :4f2+  -0.0096   0.0000  -0.0000  -0.1382   0.0365
 102 P_a :4f2-  -0.0000  -0.0492   0.1381  -0.0000  -0.0000
 103 P_a :4f1-   0.0265   0.0000  -0.0000  -0.1162  -0.1443
 105 P_a :4f1+  -0.0000   0.0265   0.1162  -0.0000  -0.0000
 106 P_a :4f2+  -0.0492   0.0000  -0.0000  -0.1381  -0.0948
 109 P_a :4f2-   0.0000   0.0256   0.1130   0.0000   0.0000
 110 P_a :4f1-  -0.0610   0.0000   0.0000  -0.0576  -0.1094
 112 P_a :4f1+  -0.0000  -0.0610   0.0576  -0.0000  -0.0000
 113 P_a :4f2+   0.0256  -0.0000  -0.0000  -0.1130   0.2525
 142 P_a :5g4-  -0.0000  -0.0022  -0.0152   0.0000   0.0000
 144 P_a :5g2-   0.0000  -0.0007  -0.0202  -0.0000  -0.0000
 145 P_a :5g1-   0.0008   0.0000   0.0000   0.0204   0.0146
 147 P_a :5g1+  -0.0000   0.0008  -0.0204   0.0000   0.0000
 148 P_a :5g2+  -0.0007  -0.0000   0.0000   0.0202  -0.0094
 150 P_a :5g4+   0.0022  -0.0000  -0.0000  -0.0152  -0.0088
 151 P_a :5g4-   0.0000  -0.0201  -0.0362   0.0000  -0.0000
 153 P_a :5g2-   0.0000   0.0033   0.0305  -0.0000   0.0000
 154 P_a :5g1-   0.0115  -0.0000   0.0000  -0.0225  -0.0206
 156 P_a :5g1+   0.0000   0.0115   0.0225  -0.0000  -0.0000
 157 P_a :5g2+   0.0033  -0.0000  -0.0000  -0.0305   0.0298
 159 P_a :5g4+   0.0201   0.0000  -0.0000  -0.0362   0.0240
 162 H_a :1s     0.0057  -0.0000  -0.0000  -0.0036  -0.0264
 163 H_a :1s    -0.0317  -0.0000  -0.0000  -0.0773  -0.0774
 164 H_a :1s     0.0469  -0.0000   0.0000  -0.0295  -0.1978
 165 H_a :1s    -0.0256  -0.0000   0.0000  -0.0844  -0.5168
 166 H_a :1s    -0.3228   0.0000   0.0000   0.9377  -2.1791
 167 H_a :1s    19.5720  -0.0001   0.0000  -0.5464  -0.2716
 177 H_a :2px   -0.0000  -0.0198  -0.0959   0.0000  -0.0000
 178 H_a :2py   -0.0684  -0.0000  -0.0000  -0.0462   0.0198
 179 H_a :2pz   -0.0189  -0.0000   0.0000   0.0409   0.0927
 180 H_a :2px   -0.0000  -0.0997  -1.5473  -0.0000   0.0000
 181 H_a :2py   -0.2128   0.0000  -0.0000  -1.0112   0.2244
 182 H_a :2pz   -0.2797   0.0000   0.0000   0.8373   1.2735
 183 H_a :2px   -0.0000  -0.5007  -0.5941   0.0000   0.0000
 184 H_a :2py   -0.4807   0.0000  -0.0000   0.0242   1.1306
 185 H_a :2pz    0.2193  -0.0000  -0.0000   0.1333   1.5476
 186 H_a :2px   -0.0001  -1.3272 -16.0834   0.0001  -0.0000
 187 H_a :2py   -2.2735  -0.0000  -0.0002 -16.0547   3.7841
 188 H_a :2pz    2.6973  -0.0000  -0.0000   9.4620  28.6938
 204 H_a :3d2-   0.0000  -0.0214   0.0175   0.0000   0.0000
 205 H_a :3d1-  -0.0106  -0.0000   0.0000   0.0093  -0.0450
 206 H_a :3d0    0.0053  -0.0000  -0.0000  -0.0157  -0.0054
 207 H_a :3d1+  -0.0000   0.0006   0.0781  -0.0000  -0.0000
 208 H_a :3d2+   0.0251   0.0000  -0.0000  -0.0734   0.0138
 209 H_a :3d2-   0.0000  -0.2149   0.4142   0.0000  -0.0000
 210 H_a :3d1-   0.0694  -0.0000  -0.0000  -0.4569  -0.1383
 211 H_a :3d0   -0.0535   0.0000   0.0000   0.2644   0.4354
 212 H_a :3d1+  -0.0000  -0.0245  -0.0682  -0.0000  -0.0000
 213 H_a :3d2+   0.1960   0.0000  -0.0000  -0.6228   0.1664
 214 H_a :3d2-  -0.0000  -1.0389   1.0043  -0.0000   0.0000
 215 H_a :3d1-   0.0023  -0.0000  -0.0000  -1.8767   0.3321
 216 H_a :3d0   -0.1790  -0.0000   0.0000   1.8226   3.0730
 217 H_a :3d1+  -0.0000  -0.0452  -1.1809   0.0000  -0.0001
 218 H_a :3d2+   0.9507   0.0000  -0.0000  -1.2264   0.4682
 240 H_a :4f3-   0.0045  -0.0000  -0.0000  -0.0370   0.0152
 241 H_a :4f2-   0.0000  -0.0184   0.0323  -0.0000  -0.0000
 242 H_a :4f1-   0.0194  -0.0000  -0.0000  -0.0598  -0.0152
 243 H_a :4f0   -0.0089   0.0000   0.0000   0.0368   0.0333
 244 H_a :4f1+  -0.0000   0.0123   0.0049  -0.0000  -0.0000
 245 H_a :4f2+   0.0037  -0.0000  -0.0000  -0.0599   0.0623
 246 H_a :4f3+  -0.0000   0.0067  -0.0818  -0.0000  -0.0000
 247 H_a :4f3-   0.0748   0.0000  -0.0000  -0.0834   0.0219
 248 H_a :4f2-   0.0000  -0.0090  -0.1102   0.0000  -0.0000
 249 H_a :4f1-   0.0288  -0.0000  -0.0000   0.1149   0.2102
 250 H_a :4f0   -0.0256   0.0000   0.0000   0.1044   0.0760
 251 H_a :4f1+  -0.0000   0.0581  -0.0811  -0.0000   0.0000
 252 H_a :4f2+  -0.0176  -0.0000  -0.0000   0.1419  -0.1647
 253 H_a :4f3+   0.0000   0.0798  -0.0700   0.0000  -0.0000
 256 H_b :1s    -0.0029  -0.0050  -0.0031   0.0018   0.0132
 257 H_b :1s     0.0158   0.0274  -0.0669   0.0386   0.0387
 258 H_b :1s    -0.0234  -0.0406  -0.0255   0.0147   0.0989
 259 H_b :1s     0.0128   0.0222  -0.0731   0.0422   0.2584
 260 H_b :1s     0.1613   0.2795   0.8122  -0.4690   1.0894
 261 H_b :1s    -9.7861 -16.9505  -0.4732   0.2732   0.1358
 271 H_b :2px   -0.0210  -0.0562   0.0107  -0.0615   0.0079
 272 H_b :2py   -0.0319  -0.0210   0.0615   0.0603   0.0062
 273 H_b :2pz    0.0095   0.0164   0.0354  -0.0204  -0.0464
 274 H_b :2px   -0.0490  -0.1845   0.3715  -1.1078  -0.0901
 275 H_b :2py   -0.1279  -0.0490   1.1081   0.9077   0.3805
 276 H_b :2pz    0.1398   0.2422   0.7252  -0.4187  -0.6368
 277 H_b :2px    0.0087  -0.4857  -0.1667  -0.2468   0.3742
 278 H_b :2py   -0.4957   0.0087   0.2468   0.4517   0.4826
 279 H_b :2pz   -0.1096  -0.1899   0.1155  -0.0667  -0.7739
 280 H_b :2px   -0.4098  -2.0367   8.0207 -13.9163   3.2035
 281 H_b :2py   -1.5636  -0.4100  13.9158   8.0481  -1.7635
 282 H_b :2pz   -1.3488  -2.3361   8.1946  -4.7312 -14.3476
 298 H_b :3d2-   0.0201   0.0135   0.0595  -0.0242  -0.0133
 299 H_b :3d1-  -0.0022  -0.0048  -0.0379  -0.0563  -0.0746
 300 H_b :3d0   -0.0027  -0.0046  -0.0136   0.0079   0.0027
 301 H_b :3d1+  -0.0048  -0.0078   0.0126   0.0379   0.0171
 302 H_b :3d2+  -0.0098   0.0201   0.0242  -0.0315   0.0369
 303 H_b :3d2-   0.1779   0.0933   0.5707  -0.0904   0.1149
 304 H_b :3d1-  -0.0010   0.0407   0.2274  -0.0630  -0.4894
 305 H_b :3d0    0.0267   0.0463   0.2290  -0.1322  -0.2177
 306 H_b :3d1+   0.0407   0.0459   0.3256  -0.2274   0.2027
 307 H_b :3d2+  -0.1122   0.1779   0.0903  -0.4663  -0.0327
 308 H_b :3d2-   0.8615   0.4533   1.1709  -0.0961   0.2499
 309 H_b :3d1-  -0.0333   0.0206   1.3241   0.4165  -1.4423
 310 H_b :3d0    0.0895   0.1550   1.5785  -0.9114  -1.5366
 311 H_b :3d1+   0.0205  -0.0096   1.1123  -1.3241   1.0245
 312 H_b :3d2+  -0.5415   0.8615   0.0961  -1.0598   0.0354
 334 H_b :4f3-  -0.0023  -0.0039  -0.0320   0.0185  -0.0076
 335 H_b :4f2-   0.0096  -0.0019   0.0530  -0.0119   0.0397
 336 H_b :4f1-   0.0141   0.0031   0.0238  -0.0186  -0.0293
 337 H_b :4f0    0.0044   0.0077   0.0319  -0.0184  -0.0167
 338 H_b :4f1+   0.0031   0.0176   0.0461  -0.0238   0.0081
 339 H_b :4f2+  -0.0129   0.0096   0.0119  -0.0392  -0.0065
 340 H_b :4f3+   0.0058  -0.0034   0.0409   0.0708  -0.0003
 341 H_b :4f3-  -0.0374  -0.0647  -0.0722   0.0417  -0.0110
 342 H_b :4f2-  -0.0037  -0.0155  -0.1340   0.0137   0.0249
 343 H_b :4f1-   0.0508  -0.0127  -0.0146   0.0895   0.1079
 344 H_b :4f0    0.0128   0.0221   0.0904  -0.0522  -0.0380
 345 H_b :4f1+  -0.0127   0.0361  -0.1064   0.0146   0.0590
 346 H_b :4f2+  -0.0111  -0.0037  -0.0137   0.1181  -0.2079
 347 H_b :4f3+   0.0691  -0.0398   0.0350   0.0606   0.0376
 350 H_c :1s    -0.0029   0.0050   0.0031   0.0018   0.0132
 351 H_c :1s     0.0158  -0.0274   0.0669   0.0386   0.0387
 352 H_c :1s    -0.0234   0.0406   0.0255   0.0147   0.0989
 353 H_c :1s     0.0128  -0.0222   0.0731   0.0422   0.2584
 354 H_c :1s     0.1613  -0.2795  -0.8122  -0.4690   1.0893
 355 H_c :1s    -9.7859  16.9505   0.4732   0.2732   0.1358
 365 H_c :2px    0.0210  -0.0562   0.0107   0.0615  -0.0079
 366 H_c :2py   -0.0319   0.0210  -0.0615   0.0603   0.0062
 367 H_c :2pz    0.0095  -0.0164  -0.0354  -0.0204  -0.0464
 368 H_c :2px    0.0490  -0.1845   0.3715   1.1079   0.0901
 369 H_c :2py   -0.1279   0.0490  -1.1080   0.9077   0.3805
 370 H_c :2pz    0.1399  -0.2422  -0.7252  -0.4186  -0.6367
 371 H_c :2px   -0.0087  -0.4857  -0.1667   0.2468  -0.3742
 372 H_c :2py   -0.4957  -0.0087  -0.2468   0.4517   0.4825
 373 H_c :2pz   -0.1096   0.1899  -0.1155  -0.0667  -0.7738
 374 H_c :2px    0.4098  -2.0367   8.0210  13.9162  -3.2034
 375 H_c :2py   -1.5636   0.4100 -13.9157   8.0484  -1.7640
 376 H_c :2pz   -1.3485   2.3361  -8.1946  -4.7309 -14.3462
 392 H_c :3d2-  -0.0201   0.0135   0.0595   0.0242   0.0133
 393 H_c :3d1-  -0.0022   0.0048   0.0379  -0.0563  -0.0746
 394 H_c :3d0   -0.0027   0.0046   0.0136   0.0079   0.0027
 395 H_c :3d1+   0.0048  -0.0078   0.0126  -0.0379  -0.0171
 396 H_c :3d2+  -0.0098  -0.0201  -0.0242  -0.0315   0.0369
 397 H_c :3d2-  -0.1779   0.0933   0.5707   0.0903  -0.1149
 398 H_c :3d1-  -0.0010  -0.0407  -0.2274  -0.0630  -0.4894
 399 H_c :3d0    0.0267  -0.0463  -0.2290  -0.1322  -0.2177
 400 H_c :3d1+  -0.0407   0.0459   0.3256   0.2274  -0.2027
 401 H_c :3d2+  -0.1122  -0.1779  -0.0903  -0.4664  -0.0326
 402 H_c :3d2-  -0.8615   0.4533   1.1709   0.0961  -0.2499
 403 H_c :3d1-  -0.0333  -0.0206  -1.3241   0.4165  -1.4423
 404 H_c :3d0    0.0895  -0.1550  -1.5785  -0.9113  -1.5364
 405 H_c :3d1+  -0.0206  -0.0096   1.1123   1.3240  -1.0245
 406 H_c :3d2+  -0.5415  -0.8615  -0.0961  -1.0598   0.0353
 428 H_c :4f3-  -0.0023   0.0039   0.0320   0.0185  -0.0076
 429 H_c :4f2-  -0.0096  -0.0019   0.0530   0.0119  -0.0397
 430 H_c :4f1-   0.0141  -0.0031  -0.0238  -0.0186  -0.0293
 431 H_c :4f0    0.0044  -0.0077  -0.0319  -0.0184  -0.0167
 432 H_c :4f1+  -0.0031   0.0176   0.0461   0.0238  -0.0081
 433 H_c :4f2+  -0.0129  -0.0096  -0.0119  -0.0392  -0.0065
 434 H_c :4f3+  -0.0058  -0.0034   0.0409  -0.0708   0.0003
 435 H_c :4f3-  -0.0374   0.0648   0.0722   0.0417  -0.0110
 436 H_c :4f2-   0.0037  -0.0155  -0.1340  -0.0137  -0.0249
 437 H_c :4f1-   0.0508   0.0127   0.0146   0.0896   0.1079
 438 H_c :4f0    0.0128  -0.0221  -0.0904  -0.0522  -0.0380
 439 H_c :4f1+   0.0127   0.0361  -0.1064  -0.0146  -0.0590
 440 H_c :4f2+  -0.0111   0.0037   0.0137   0.1181  -0.2079
 441 H_c :4f3+  -0.0691  -0.0398   0.0350  -0.0606  -0.0376

  Total CPU  time used in SIRIUS :  4 minutes  3 seconds
  Total wall time used in SIRIUS :  4 minutes  4 seconds

 
     Date and time (Linux)  : Tue Jul 23 14:03:10 2024
     Host name              : dn012                                   

 NOTE:    1 warnings have been issued.
 Check output, result, and error files for "WARNING".


                     .---------------------------------------.
                     | End of Wave Function Section (SIRIUS) |
                     `---------------------------------------'



                 .------------------------------------------------.
                 | Starting in Dynamic Property Section (RESPONS) |
                 `------------------------------------------------'


 ----------------------------------------------------------------------------------------
  RESPONSE  -  an MCSCF, MC-srDFT, DFT, SOPPA and SOPPA-srDFT response property program
 ----------------------------------------------------------------------------------------


 -------- OUTPUT FROM RESPONSE INPUT PROCESSING --------




 Quadratic Response calculation
 ------------------------------

 First hyperpolarizability calculation : HYPCAL= T

 Spin of operator A , ISPINA=    0
 Spin of operator B , ISPINB=    0
 Spin of operator C , ISPINC=    0

  5 B-frequencies  0.000000D+00  1.647050D-02  3.294100D-02  4.941150D-02  6.588200D-02
  5 C-frequencies  0.000000D+00  1.647050D-02  3.294100D-02  4.941150D-02  6.588200D-02


 Print level                                    : IPRHYP =   2
 Maximum number of iterations in lin.rsp. solver: MAXITL =  60
 Threshold for convergence of linear resp. eq.s : THCLR  = 1.000D-03
 Maximum iterations in optimal orbital algorithm: MAXITO =   5
 Direct one-index transformation                : DIROIT = T

    3 A OPERATORS OF SYMMETRY NO:    1 AND LABELS:

          XDIPLEN 
          YDIPLEN 
          ZDIPLEN 

    3 B OPERATORS OF SYMMETRY NO:    1 AND LABELS:

          XDIPLEN 
          YDIPLEN 
          ZDIPLEN 

    3 C OPERATORS OF SYMMETRY NO:    1 AND LABELS:

          XDIPLEN 
          YDIPLEN 
          ZDIPLEN 


   SCF energy         :     -342.492282812214626
 -- inactive part     :     -360.018563518567817
 -- nuclear repulsion :       17.526280706353216


                     ***************************************
                     *** RHF response calculation (TDHF) ***
                     ***************************************



 Linear response calculations for quadratic response
 - singlet property operator of symmetry    1  ( A  )


 Perturbation symmetry.     KSYMOP:           1
 Perturbation spin symmetry.TRPLET:           F
 Orbital variables.         KZWOPT:        3780
 Configuration variables.   KZCONF:           0
 Total number of variables. KZVAR :        3780


 QRLRVE -- linear response calculation for symmetry  1  ( A  )
 QRLRVE -- operator label : XDIPLEN 
 QRLRVE -- operator spin  :   0
 QRLRVE -- frequencies :  0.000000  0.016470  0.032941  0.049411  0.065882
                          0.082352  0.098823  0.115293  0.131764



 ---  SOLVING SETS OF LINEAR EQUATIONS FOR LINEAR RESPONSE PROPERTIES ---

 Operator symmetry = 1  ( A  ); triplet =   F


 ** RSPCTL MICROITERATION NUMBER    1

       No.  Residual tot.,    conf., and orb.    Bnorm      Frequency 
      ----------------------------------------------------------------
         1    1.79531D+00  0.00D+00  1.80D+00  4.94D+00    0.00000D+00
         2    1.79794D+00  0.00D+00  1.80D+00  4.95D+00    1.64705D-02
         3    1.80590D+00  0.00D+00  1.81D+00  5.00D+00    3.29410D-02
         4    1.81940D+00  0.00D+00  1.82D+00  5.08D+00    4.94115D-02
         5    1.83879D+00  0.00D+00  1.84D+00  5.19D+00    6.58820D-02
         6    1.86462D+00  0.00D+00  1.86D+00  5.34D+00    8.23525D-02
         7    1.89765D+00  0.00D+00  1.90D+00  5.53D+00    9.88230D-02
         8    1.93899D+00  0.00D+00  1.94D+00  5.77D+00    1.15293D-01
         9    1.99016D+00  0.00D+00  1.99D+00  6.08D+00    1.31764D-01

 ** RSPCTL MICROITERATION NUMBER    2

       No.  Residual tot.,    conf., and orb.    Bnorm      Frequency 
      ----------------------------------------------------------------
         1    2.69129D-01  0.00D+00  2.69D-01  5.30D+00    0.00000D+00
         2    2.69865D-01  0.00D+00  2.70D-01  5.32D+00    1.64705D-02
         3    2.72101D-01  0.00D+00  2.72D-01  5.37D+00    3.29410D-02
         4    2.75920D-01  0.00D+00  2.76D-01  5.46D+00    4.94115D-02
         5    2.81470D-01  0.00D+00  2.81D-01  5.59D+00    6.58820D-02
         6    2.88982D-01  0.00D+00  2.89D-01  5.77D+00    8.23525D-02
         7    2.98803D-01  0.00D+00  2.99D-01  5.99D+00    9.88230D-02
         8    3.11449D-01  0.00D+00  3.11D-01  6.28D+00    1.15293D-01
         9    3.27699D-01  0.00D+00  3.28D-01  6.64D+00    1.31764D-01

 ** RSPCTL MICROITERATION NUMBER    3

       No.  Residual tot.,    conf., and orb.    Bnorm      Frequency 
      ----------------------------------------------------------------
         1    2.26618D-02  0.00D+00  2.27D-02  5.31D+00    0.00000D+00
         2    2.28195D-02  0.00D+00  2.28D-02  5.33D+00    1.64705D-02
         3    2.33017D-02  0.00D+00  2.33D-02  5.38D+00    3.29410D-02
         4    2.41376D-02  0.00D+00  2.41D-02  5.47D+00    4.94115D-02
         5    2.53800D-02  0.00D+00  2.54D-02  5.60D+00    6.58820D-02
         6    2.71139D-02  0.00D+00  2.71D-02  5.77D+00    8.23525D-02
         7    2.94716D-02  0.00D+00  2.95D-02  6.00D+00    9.88230D-02
         8    3.26584D-02  0.00D+00  3.27D-02  6.29D+00    1.15293D-01
         9    3.70008D-02  0.00D+00  3.70D-02  6.66D+00    1.31764D-01

 ** RSPCTL MICROITERATION NUMBER    4

       No.  Residual tot.,    conf., and orb.    Bnorm      Frequency 
      ----------------------------------------------------------------
         1    2.37553D-03  0.00D+00  2.38D-03  5.31D+00    0.00000D+00
         2    2.39715D-03  0.00D+00  2.40D-03  5.33D+00    1.64705D-02
         3    2.46432D-03  0.00D+00  2.46D-03  5.38D+00    3.29410D-02
         4    2.58438D-03  0.00D+00  2.58D-03  5.47D+00    4.94115D-02
         5    2.77114D-03  0.00D+00  2.77D-03  5.60D+00    6.58820D-02
         6    3.04758D-03  0.00D+00  3.05D-03  5.78D+00    8.23525D-02
         7    3.45078D-03  0.00D+00  3.45D-03  6.00D+00    9.88230D-02
         8    4.04051D-03  0.00D+00  4.04D-03  6.29D+00    1.15293D-01
         9    4.91506D-03  0.00D+00  4.92D-03  6.66D+00    1.31764D-01

 *** THE REQUESTED    9 SOLUTION VECTORS CONVERGED

 Convergence of RSP solution vectors, threshold = 1.00D-03
 ---------------------------------------------------------------
 (dimension of paired reduced space:   72)
 RSP solution vector no.    1; norm of residual   4.47D-04
 RSP solution vector no.    2; norm of residual   4.50D-04
 RSP solution vector no.    3; norm of residual   4.58D-04
 RSP solution vector no.    4; norm of residual   4.72D-04
 RSP solution vector no.    5; norm of residual   4.95D-04
 RSP solution vector no.    6; norm of residual   5.28D-04
 RSP solution vector no.    7; norm of residual   5.75D-04
 RSP solution vector no.    8; norm of residual   6.42D-04
 RSP solution vector no.    9; norm of residual   7.38D-04

 *** RSPCTL MICROITERATIONS CONVERGED

@ QRLRVE: SINGLET SOLUTION FOR SYMMETRY    1  ( A  )    LABEL   XDIPLEN     FREQUENCY   0.000000D+00

@ QRLRVE:  << XDIPLEN  ; XDIPLEN  >> (   0.00000):     29.5199455253    

@ QRLRVE:  << YDIPLEN  ; XDIPLEN  >> (   0.00000):    4.742719781156E-04

@ QRLRVE:  << ZDIPLEN  ; XDIPLEN  >> (   0.00000):   -4.046243233822E-04

@ QRLRVE: SINGLET SOLUTION FOR SYMMETRY    1  ( A  )    LABEL   XDIPLEN     FREQUENCY   0.164705D-01

@ QRLRVE:  << XDIPLEN  ; XDIPLEN  >> (   0.01647):     29.5669106672    

@ QRLRVE:  << YDIPLEN  ; XDIPLEN  >> (   0.01647):    4.812442631621E-04

@ QRLRVE:  << ZDIPLEN  ; XDIPLEN  >> (   0.01647):   -4.020891517808E-04

@ QRLRVE: SINGLET SOLUTION FOR SYMMETRY    1  ( A  )    LABEL   XDIPLEN     FREQUENCY   0.329410D-01

@ QRLRVE:  << XDIPLEN  ; XDIPLEN  >> (   0.03294):     29.7090401164    

@ QRLRVE:  << YDIPLEN  ; XDIPLEN  >> (   0.03294):    5.024848748644E-04

@ QRLRVE:  << ZDIPLEN  ; XDIPLEN  >> (   0.03294):   -3.936290603604E-04

@ QRLRVE: SINGLET SOLUTION FOR SYMMETRY    1  ( A  )    LABEL   XDIPLEN     FREQUENCY   0.494115D-01

@ QRLRVE:  << XDIPLEN  ; XDIPLEN  >> (   0.04941):     29.9501392581    

@ QRLRVE:  << YDIPLEN  ; XDIPLEN  >> (   0.04941):    5.389978586565E-04

@ QRLRVE:  << ZDIPLEN  ; XDIPLEN  >> (   0.04941):   -3.764840276811E-04

@ QRLRVE: SINGLET SOLUTION FOR SYMMETRY    1  ( A  )    LABEL   XDIPLEN     FREQUENCY   0.658820D-01

@ QRLRVE:  << XDIPLEN  ; XDIPLEN  >> (   0.06588):     30.2969138621    

@ QRLRVE:  << YDIPLEN  ; XDIPLEN  >> (   0.06588):    5.925728328774E-04

@ QRLRVE:  << ZDIPLEN  ; XDIPLEN  >> (   0.06588):   -3.453404599587E-04

@ QRLRVE: SINGLET SOLUTION FOR SYMMETRY    1  ( A  )    LABEL   XDIPLEN     FREQUENCY   0.823525D-01

@ QRLRVE:  << XDIPLEN  ; XDIPLEN  >> (   0.08235):     30.7595883972    

@ QRLRVE:  << YDIPLEN  ; XDIPLEN  >> (   0.08235):    6.659862837674E-04

@ QRLRVE:  << ZDIPLEN  ; XDIPLEN  >> (   0.08235):   -2.910284806264E-04

@ QRLRVE: SINGLET SOLUTION FOR SYMMETRY    1  ( A  )    LABEL   XDIPLEN     FREQUENCY   0.988230D-01

@ QRLRVE:  << XDIPLEN  ; XDIPLEN  >> (   0.09882):     31.3529441337    

@ QRLRVE:  << YDIPLEN  ; XDIPLEN  >> (   0.09882):    7.633483565755E-04

@ QRLRVE:  << ZDIPLEN  ; XDIPLEN  >> (   0.09882):   -1.981286285797E-04

@ QRLRVE: SINGLET SOLUTION FOR SYMMETRY    1  ( A  )    LABEL   XDIPLEN     FREQUENCY   0.115293D+00

@ QRLRVE:  << XDIPLEN  ; XDIPLEN  >> (   0.11529):     32.0980257139    

@ QRLRVE:  << YDIPLEN  ; XDIPLEN  >> (   0.11529):    8.906927646124E-04

@ QRLRVE:  << ZDIPLEN  ; XDIPLEN  >> (   0.11529):   -4.060750404594E-05

@ QRLRVE: SINGLET SOLUTION FOR SYMMETRY    1  ( A  )    LABEL   XDIPLEN     FREQUENCY   0.131764D+00

@ QRLRVE:  << XDIPLEN  ; XDIPLEN  >> (   0.13176):     33.0249965022    

@ QRLRVE:  << YDIPLEN  ; XDIPLEN  >> (   0.13176):    1.057006125890E-03

@ QRLRVE:  << ZDIPLEN  ; XDIPLEN  >> (   0.13176):    2.263244321698E-04


 QRLRVE -- linear response calculation for symmetry  1  ( A  )
 QRLRVE -- operator label : YDIPLEN 
 QRLRVE -- operator spin  :   0
 QRLRVE -- frequencies :  0.000000  0.016470  0.032941  0.049411  0.065882
                          0.082352  0.098823  0.115293  0.131764



 ---  SOLVING SETS OF LINEAR EQUATIONS FOR LINEAR RESPONSE PROPERTIES ---

 Operator symmetry = 1  ( A  ); triplet =   F


 ** RSPCTL MICROITERATION NUMBER    1

       No.  Residual tot.,    conf., and orb.    Bnorm      Frequency 
      ----------------------------------------------------------------
         1    1.79802D+00  0.00D+00  1.80D+00  4.94D+00    0.00000D+00
         2    1.80066D+00  0.00D+00  1.80D+00  4.95D+00    1.64705D-02
         3    1.80863D+00  0.00D+00  1.81D+00  5.00D+00    3.29410D-02
         4    1.82214D+00  0.00D+00  1.82D+00  5.08D+00    4.94115D-02
         5    1.84155D+00  0.00D+00  1.84D+00  5.19D+00    6.58820D-02
         6    1.86740D+00  0.00D+00  1.87D+00  5.34D+00    8.23525D-02
         7    1.90047D+00  0.00D+00  1.90D+00  5.53D+00    9.88230D-02
         8    1.94185D+00  0.00D+00  1.94D+00  5.78D+00    1.15293D-01
         9    1.99307D+00  0.00D+00  1.99D+00  6.08D+00    1.31764D-01

 ** RSPCTL MICROITERATION NUMBER    2

       No.  Residual tot.,    conf., and orb.    Bnorm      Frequency 
      ----------------------------------------------------------------
         1    2.61782D-01  0.00D+00  2.62D-01  5.30D+00    0.00000D+00
         2    2.62510D-01  0.00D+00  2.63D-01  5.32D+00    1.64705D-02
         3    2.64721D-01  0.00D+00  2.65D-01  5.37D+00    3.29410D-02
         4    2.68499D-01  0.00D+00  2.68D-01  5.46D+00    4.94115D-02
         5    2.73994D-01  0.00D+00  2.74D-01  5.59D+00    6.58820D-02
         6    2.81442D-01  0.00D+00  2.81D-01  5.77D+00    8.23525D-02
         7    2.91192D-01  0.00D+00  2.91D-01  5.99D+00    9.88230D-02
         8    3.03767D-01  0.00D+00  3.04D-01  6.28D+00    1.15293D-01
         9    3.19955D-01  0.00D+00  3.20D-01  6.64D+00    1.31764D-01

 ** RSPCTL MICROITERATION NUMBER    3

       No.  Residual tot.,    conf., and orb.    Bnorm      Frequency 
      ----------------------------------------------------------------
         1    2.07275D-02  0.00D+00  2.07D-02  5.31D+00    0.00000D+00
         2    2.08874D-02  0.00D+00  2.09D-02  5.33D+00    1.64705D-02
         3    2.13771D-02  0.00D+00  2.14D-02  5.38D+00    3.29410D-02
         4    2.22278D-02  0.00D+00  2.22D-02  5.47D+00    4.94115D-02
         5    2.34968D-02  0.00D+00  2.35D-02  5.60D+00    6.58820D-02
         6    2.52762D-02  0.00D+00  2.53D-02  5.77D+00    8.23525D-02
         7    2.77083D-02  0.00D+00  2.77D-02  6.00D+00    9.88230D-02
         8    3.10142D-02  0.00D+00  3.10D-02  6.29D+00    1.15293D-01
         9    3.55435D-02  0.00D+00  3.55D-02  6.66D+00    1.31764D-01

 ** RSPCTL MICROITERATION NUMBER    4

       No.  Residual tot.,    conf., and orb.    Bnorm      Frequency 
      ----------------------------------------------------------------
         1    2.34256D-03  0.00D+00  2.34D-03  5.31D+00    0.00000D+00
         2    2.36056D-03  0.00D+00  2.36D-03  5.33D+00    1.64705D-02
         3    2.41688D-03  0.00D+00  2.42D-03  5.38D+00    3.29410D-02
         4    2.51902D-03  0.00D+00  2.52D-03  5.47D+00    4.94115D-02
         5    2.68126D-03  0.00D+00  2.68D-03  5.60D+00    6.58820D-02
         6    2.92784D-03  0.00D+00  2.93D-03  5.78D+00    8.23525D-02
         7    3.29845D-03  0.00D+00  3.30D-03  6.00D+00    9.88230D-02
         8    3.85769D-03  0.00D+00  3.86D-03  6.29D+00    1.15293D-01
         9    4.71195D-03  0.00D+00  4.71D-03  6.66D+00    1.31764D-01

 *** THE REQUESTED    9 SOLUTION VECTORS CONVERGED

 Convergence of RSP solution vectors, threshold = 1.00D-03
 ---------------------------------------------------------------
 (dimension of paired reduced space:   72)
 RSP solution vector no.    1; norm of residual   4.41D-04
 RSP solution vector no.    2; norm of residual   4.43D-04
 RSP solution vector no.    3; norm of residual   4.49D-04
 RSP solution vector no.    4; norm of residual   4.61D-04
 RSP solution vector no.    5; norm of residual   4.79D-04
 RSP solution vector no.    6; norm of residual   5.07D-04
 RSP solution vector no.    7; norm of residual   5.50D-04
 RSP solution vector no.    8; norm of residual   6.13D-04
 RSP solution vector no.    9; norm of residual   7.08D-04

 *** RSPCTL MICROITERATIONS CONVERGED

@ QRLRVE: SINGLET SOLUTION FOR SYMMETRY    1  ( A  )    LABEL   YDIPLEN     FREQUENCY   0.000000D+00

@ QRLRVE:  << XDIPLEN  ; YDIPLEN  >> (   0.00000):   -1.303264119261E-03

@ QRLRVE:  << YDIPLEN  ; YDIPLEN  >> (   0.00000):     29.5206234579    

@ QRLRVE:  << ZDIPLEN  ; YDIPLEN  >> (   0.00000):    5.726423779344E-04

@ QRLRVE: SINGLET SOLUTION FOR SYMMETRY    1  ( A  )    LABEL   YDIPLEN     FREQUENCY   0.164705D-01

@ QRLRVE:  << XDIPLEN  ; YDIPLEN  >> (   0.01647):   -1.302885558294E-03

@ QRLRVE:  << YDIPLEN  ; YDIPLEN  >> (   0.01647):     29.5675905463    

@ QRLRVE:  << ZDIPLEN  ; YDIPLEN  >> (   0.01647):    5.711797749743E-04

@ QRLRVE: SINGLET SOLUTION FOR SYMMETRY    1  ( A  )    LABEL   YDIPLEN     FREQUENCY   0.329410D-01

@ QRLRVE:  << XDIPLEN  ; YDIPLEN  >> (   0.03294):   -1.301259208260E-03

@ QRLRVE:  << YDIPLEN  ; YDIPLEN  >> (   0.03294):     29.7097258971    

@ QRLRVE:  << ZDIPLEN  ; YDIPLEN  >> (   0.03294):    5.665635382712E-04

@ QRLRVE: SINGLET SOLUTION FOR SYMMETRY    1  ( A  )    LABEL   YDIPLEN     FREQUENCY   0.494115D-01

@ QRLRVE:  << XDIPLEN  ; YDIPLEN  >> (   0.04941):   -1.296798078285E-03

[...]
@ B-freq = 0.049411  C-freq = 0.049411     beta(Y;Z,Y) =     -5.89240907
@ B-freq = 0.049411  C-freq = 0.049411     beta(Z;Z,Y) =     -0.00478206
@ B-freq = 0.065882  C-freq = 0.049411     beta(X;Z,Y) =     -0.00104720
@ B-freq = 0.065882  C-freq = 0.049411     beta(Y;Z,Y) =     -6.63894931
@ B-freq = 0.065882  C-freq = 0.049411     beta(Z;Z,Y) =     -0.00621702
@ B-freq = 0.000000  C-freq = 0.065882     beta(X;X,Y) = beta(X,Y,X)
@ B-freq = 0.000000  C-freq = 0.065882     beta(Y;X,Y) = beta(Y,Y,X)
@ B-freq = 0.000000  C-freq = 0.065882     beta(Z;X,Y) = beta(Z,Y,X)
@ B-freq = 0.016470  C-freq = 0.065882     beta(X;X,Y) = beta(X,Y,X)
@ B-freq = 0.016470  C-freq = 0.065882     beta(Y;X,Y) = beta(Y,Y,X)
@ B-freq = 0.016470  C-freq = 0.065882     beta(Z;X,Y) = beta(Z,Y,X)
@ B-freq = 0.032941  C-freq = 0.065882     beta(X;X,Y) = beta(X,Y,X)
@ B-freq = 0.032941  C-freq = 0.065882     beta(Y;X,Y) = beta(Y,Y,X)
@ B-freq = 0.032941  C-freq = 0.065882     beta(Z;X,Y) = beta(Z,Y,X)
@ B-freq = 0.049411  C-freq = 0.065882     beta(X;X,Y) = beta(X,Y,X)
@ B-freq = 0.049411  C-freq = 0.065882     beta(Y;X,Y) = beta(Y,Y,X)
@ B-freq = 0.049411  C-freq = 0.065882     beta(Z;X,Y) = beta(Z,Y,X)
@ B-freq = 0.065882  C-freq = 0.065882     beta(X;X,Y) = beta(X,Y,X)
@ B-freq = 0.065882  C-freq = 0.065882     beta(Y;X,Y) = beta(Y,Y,X)
@ B-freq = 0.065882  C-freq = 0.065882     beta(Z;X,Y) = beta(Z,Y,X)
@ B-freq = 0.000000  C-freq = 0.065882     beta(X;Y,Y) = beta(X,Y,Y)
@ B-freq = 0.000000  C-freq = 0.065882     beta(Y;Y,Y) = beta(Y,Y,Y)
@ B-freq = 0.000000  C-freq = 0.065882     beta(Z;Y,Y) = beta(Z,Y,Y)
@ B-freq = 0.016470  C-freq = 0.065882     beta(X;Y,Y) = beta(X,Y,Y)
@ B-freq = 0.016470  C-freq = 0.065882     beta(Y;Y,Y) = beta(Y,Y,Y)
@ B-freq = 0.016470  C-freq = 0.065882     beta(Z;Y,Y) = beta(Z,Y,Y)
@ B-freq = 0.032941  C-freq = 0.065882     beta(X;Y,Y) = beta(X,Y,Y)
@ B-freq = 0.032941  C-freq = 0.065882     beta(Y;Y,Y) = beta(Y,Y,Y)
@ B-freq = 0.032941  C-freq = 0.065882     beta(Z;Y,Y) = beta(Z,Y,Y)
@ B-freq = 0.049411  C-freq = 0.065882     beta(X;Y,Y) = beta(X,Y,Y)
@ B-freq = 0.049411  C-freq = 0.065882     beta(Y;Y,Y) = beta(Y,Y,Y)
@ B-freq = 0.049411  C-freq = 0.065882     beta(Z;Y,Y) = beta(Z,Y,Y)
@ B-freq = 0.065882  C-freq = 0.065882     beta(X;Y,Y) =     -0.00226979
@ B-freq = 0.065882  C-freq = 0.065882     beta(Y;Y,Y) =     17.37250211
@ B-freq = 0.065882  C-freq = 0.065882     beta(Z;Y,Y) =     -8.58314846
@ B-freq = 0.000000  C-freq = 0.065882     beta(X;Z,Y) =     -0.00060415
@ B-freq = 0.000000  C-freq = 0.065882     beta(Y;Z,Y) =     -5.17599965
@ B-freq = 0.000000  C-freq = 0.065882     beta(Z;Z,Y) =     -0.00343613
@ B-freq = 0.016470  C-freq = 0.065882     beta(X;Z,Y) =     -0.00074407
@ B-freq = 0.016470  C-freq = 0.065882     beta(Y;Z,Y) =     -5.40866155
@ B-freq = 0.016470  C-freq = 0.065882     beta(Z;Z,Y) =     -0.00387105
@ B-freq = 0.032941  C-freq = 0.065882     beta(X;Z,Y) =     -0.00092385
@ B-freq = 0.032941  C-freq = 0.065882     beta(Y;Z,Y) =     -5.81054111
@ B-freq = 0.032941  C-freq = 0.065882     beta(Z;Z,Y) =     -0.00460993
@ B-freq = 0.049411  C-freq = 0.065882     beta(X;Z,Y) =     -0.00115532
@ B-freq = 0.049411  C-freq = 0.065882     beta(Y;Z,Y) =     -6.43804477
@ B-freq = 0.049411  C-freq = 0.065882     beta(Z;Z,Y) =     -0.00583410
@ B-freq = 0.065882  C-freq = 0.065882     beta(X;Z,Y) =     -0.00145121
@ B-freq = 0.065882  C-freq = 0.065882     beta(Y;Z,Y) =     -7.38820760
@ B-freq = 0.065882  C-freq = 0.065882     beta(Z;Z,Y) =     -0.00787933
@ B-freq = 0.000000  C-freq = 0.000000     beta(X;X,Z) = beta(Z,X,X)
@ B-freq = 0.000000  C-freq = 0.000000     beta(Y;X,Z) = beta(Z,Y,X)
@ B-freq = 0.000000  C-freq = 0.000000     beta(Z;X,Z) = beta(Z,Z,X)
@ B-freq = 0.016470  C-freq = 0.000000     beta(X;X,Z) = beta(X,Z,X)
@ B-freq = 0.016470  C-freq = 0.000000     beta(Y;X,Z) = beta(Y,Z,X)
@ B-freq = 0.016470  C-freq = 0.000000     beta(Z;X,Z) = beta(Z,Z,X)
@ B-freq = 0.032941  C-freq = 0.000000     beta(X;X,Z) = beta(X,Z,X)
@ B-freq = 0.032941  C-freq = 0.000000     beta(Y;X,Z) = beta(Y,Z,X)
@ B-freq = 0.032941  C-freq = 0.000000     beta(Z;X,Z) = beta(Z,Z,X)
@ B-freq = 0.049411  C-freq = 0.000000     beta(X;X,Z) = beta(X,Z,X)
@ B-freq = 0.049411  C-freq = 0.000000     beta(Y;X,Z) = beta(Y,Z,X)
@ B-freq = 0.049411  C-freq = 0.000000     beta(Z;X,Z) = beta(Z,Z,X)
@ B-freq = 0.065882  C-freq = 0.000000     beta(X;X,Z) = beta(X,Z,X)
@ B-freq = 0.065882  C-freq = 0.000000     beta(Y;X,Z) = beta(Y,Z,X)
@ B-freq = 0.065882  C-freq = 0.000000     beta(Z;X,Z) = beta(Z,Z,X)
@ B-freq = 0.000000  C-freq = 0.000000     beta(X;Y,Z) = beta(Z,Y,X)
@ B-freq = 0.000000  C-freq = 0.000000     beta(Y;Y,Z) = beta(Z,Y,Y)
@ B-freq = 0.000000  C-freq = 0.000000     beta(Z;Y,Z) = beta(Z,Z,Y)
@ B-freq = 0.016470  C-freq = 0.000000     beta(X;Y,Z) = beta(X,Z,Y)
@ B-freq = 0.016470  C-freq = 0.000000     beta(Y;Y,Z) = beta(Y,Z,Y)
@ B-freq = 0.016470  C-freq = 0.000000     beta(Z;Y,Z) = beta(Z,Z,Y)
@ B-freq = 0.032941  C-freq = 0.000000     beta(X;Y,Z) = beta(X,Z,Y)
@ B-freq = 0.032941  C-freq = 0.000000     beta(Y;Y,Z) = beta(Y,Z,Y)
@ B-freq = 0.032941  C-freq = 0.000000     beta(Z;Y,Z) = beta(Z,Z,Y)
@ B-freq = 0.049411  C-freq = 0.000000     beta(X;Y,Z) = beta(X,Z,Y)
@ B-freq = 0.049411  C-freq = 0.000000     beta(Y;Y,Z) = beta(Y,Z,Y)
@ B-freq = 0.049411  C-freq = 0.000000     beta(Z;Y,Z) = beta(Z,Z,Y)
@ B-freq = 0.065882  C-freq = 0.000000     beta(X;Y,Z) = beta(X,Z,Y)
@ B-freq = 0.065882  C-freq = 0.000000     beta(Y;Y,Z) = beta(Y,Z,Y)
@ B-freq = 0.065882  C-freq = 0.000000     beta(Z;Y,Z) = beta(Z,Z,Y)
@ B-freq = 0.000000  C-freq = 0.000000     beta(X;Z,Z) = beta(Z,Z,X)
@ B-freq = 0.000000  C-freq = 0.000000     beta(Y;Z,Z) = beta(Z,Z,Y)
@ B-freq = 0.000000  C-freq = 0.000000     beta(X;Z,Z) =     -0.00065325
@ B-freq = 0.000000  C-freq = 0.000000     beta(Y;Z,Z) =     -0.00271150
@ B-freq = 0.000000  C-freq = 0.000000     beta(Z;Z,Z) =    -30.36114020
@ B-freq = 0.016470  C-freq = 0.000000     beta(X;Z,Z) =     -0.00066147
@ B-freq = 0.016470  C-freq = 0.000000     beta(Y;Z,Z) =     -0.00275116
@ B-freq = 0.016470  C-freq = 0.000000     beta(Z;Z,Z) =    -30.54161057
@ B-freq = 0.032941  C-freq = 0.000000     beta(X;Z,Z) =     -0.00068603
@ B-freq = 0.032941  C-freq = 0.000000     beta(Y;Z,Z) =     -0.00287440
@ B-freq = 0.032941  C-freq = 0.000000     beta(Z;Z,Z) =    -31.09313241
@ B-freq = 0.049411  C-freq = 0.000000     beta(X;Z,Z) =     -0.00072643
@ B-freq = 0.049411  C-freq = 0.000000     beta(Y;Z,Z) =     -0.00309476
@ B-freq = 0.049411  C-freq = 0.000000     beta(Z;Z,Z) =    -32.04736109
@ B-freq = 0.065882  C-freq = 0.000000     beta(X;Z,Z) =     -0.00078101
@ B-freq = 0.065882  C-freq = 0.000000     beta(Y;Z,Z) =     -0.00343774
@ B-freq = 0.065882  C-freq = 0.000000     beta(Z;Z,Z) =    -33.46178498
@ B-freq = 0.000000  C-freq = 0.016470     beta(X;X,Z) = beta(X,Z,X)
@ B-freq = 0.000000  C-freq = 0.016470     beta(Y;X,Z) = beta(Y,Z,X)
@ B-freq = 0.000000  C-freq = 0.016470     beta(Z;X,Z) = beta(Z,Z,X)
@ B-freq = 0.016470  C-freq = 0.016470     beta(X;X,Z) = beta(X,Z,X)
@ B-freq = 0.016470  C-freq = 0.016470     beta(Y;X,Z) = beta(Y,Z,X)
@ B-freq = 0.016470  C-freq = 0.016470     beta(Z;X,Z) = beta(Z,Z,X)
@ B-freq = 0.032941  C-freq = 0.016470     beta(X;X,Z) = beta(X,Z,X)
@ B-freq = 0.032941  C-freq = 0.016470     beta(Y;X,Z) = beta(Y,Z,X)
@ B-freq = 0.032941  C-freq = 0.016470     beta(Z;X,Z) = beta(Z,Z,X)
@ B-freq = 0.049411  C-freq = 0.016470     beta(X;X,Z) = beta(X,Z,X)
@ B-freq = 0.049411  C-freq = 0.016470     beta(Y;X,Z) = beta(Y,Z,X)
@ B-freq = 0.049411  C-freq = 0.016470     beta(Z;X,Z) = beta(Z,Z,X)
@ B-freq = 0.065882  C-freq = 0.016470     beta(X;X,Z) = beta(X,Z,X)
@ B-freq = 0.065882  C-freq = 0.016470     beta(Y;X,Z) = beta(Y,Z,X)
@ B-freq = 0.065882  C-freq = 0.016470     beta(Z;X,Z) = beta(Z,Z,X)
@ B-freq = 0.000000  C-freq = 0.016470     beta(X;Y,Z) = beta(X,Z,Y)
@ B-freq = 0.000000  C-freq = 0.016470     beta(Y;Y,Z) = beta(Y,Z,Y)
@ B-freq = 0.000000  C-freq = 0.016470     beta(Z;Y,Z) = beta(Z,Z,Y)
@ B-freq = 0.016470  C-freq = 0.016470     beta(X;Y,Z) = beta(X,Z,Y)
@ B-freq = 0.016470  C-freq = 0.016470     beta(Y;Y,Z) = beta(Y,Z,Y)
@ B-freq = 0.016470  C-freq = 0.016470     beta(Z;Y,Z) = beta(Z,Z,Y)
@ B-freq = 0.032941  C-freq = 0.016470     beta(X;Y,Z) = beta(X,Z,Y)
@ B-freq = 0.032941  C-freq = 0.016470     beta(Y;Y,Z) = beta(Y,Z,Y)
@ B-freq = 0.032941  C-freq = 0.016470     beta(Z;Y,Z) = beta(Z,Z,Y)
@ B-freq = 0.049411  C-freq = 0.016470     beta(X;Y,Z) = beta(X,Z,Y)
@ B-freq = 0.049411  C-freq = 0.016470     beta(Y;Y,Z) = beta(Y,Z,Y)
@ B-freq = 0.049411  C-freq = 0.016470     beta(Z;Y,Z) = beta(Z,Z,Y)
@ B-freq = 0.065882  C-freq = 0.016470     beta(X;Y,Z) = beta(X,Z,Y)
@ B-freq = 0.065882  C-freq = 0.016470     beta(Y;Y,Z) = beta(Y,Z,Y)
@ B-freq = 0.065882  C-freq = 0.016470     beta(Z;Y,Z) = beta(Z,Z,Y)
@ B-freq = 0.000000  C-freq = 0.016470     beta(X;Z,Z) = beta(X,Z,Z)
@ B-freq = 0.000000  C-freq = 0.016470     beta(Y;Z,Z) = beta(Y,Z,Z)
@ B-freq = 0.000000  C-freq = 0.016470     beta(Z;Z,Z) = beta(Z,Z,Z)
@ B-freq = 0.016470  C-freq = 0.016470     beta(X;Z,Z) =     -0.00062533
@ B-freq = 0.016470  C-freq = 0.016470     beta(Y;Z,Z) =     -0.00281253
@ B-freq = 0.016470  C-freq = 0.016470     beta(Z;Z,Z) =    -30.90758757
@ B-freq = 0.032941  C-freq = 0.016470     beta(X;Z,Z) =     -0.00059405
@ B-freq = 0.032941  C-freq = 0.016470     beta(Y;Z,Z) =     -0.00296008
@ B-freq = 0.032941  C-freq = 0.016470     beta(Z;Z,Z) =    -31.66030160
@ B-freq = 0.049411  C-freq = 0.016470     beta(X;Z,Z) =     -0.00055577
@ B-freq = 0.049411  C-freq = 0.016470     beta(Y;Z,Z) =     -0.00320878
@ B-freq = 0.049411  C-freq = 0.016470     beta(Z;Z,Z) =    -32.84403833
@ B-freq = 0.065882  C-freq = 0.016470     beta(X;Z,Z) =     -0.00049124
@ B-freq = 0.065882  C-freq = 0.016470     beta(Y;Z,Z) =     -0.00358565
@ B-freq = 0.065882  C-freq = 0.016470     beta(Z;Z,Z) =    -34.53282278
@ B-freq = 0.000000  C-freq = 0.032941     beta(X;X,Z) = beta(X,Z,X)
@ B-freq = 0.000000  C-freq = 0.032941     beta(Y;X,Z) = beta(Y,Z,X)
@ B-freq = 0.000000  C-freq = 0.032941     beta(Z;X,Z) = beta(Z,Z,X)
@ B-freq = 0.016470  C-freq = 0.032941     beta(X;X,Z) = beta(X,Z,X)
@ B-freq = 0.016470  C-freq = 0.032941     beta(Y;X,Z) = beta(Y,Z,X)
@ B-freq = 0.016470  C-freq = 0.032941     beta(Z;X,Z) = beta(Z,Z,X)
@ B-freq = 0.032941  C-freq = 0.032941     beta(X;X,Z) = beta(X,Z,X)
@ B-freq = 0.032941  C-freq = 0.032941     beta(Y;X,Z) = beta(Y,Z,X)
@ B-freq = 0.032941  C-freq = 0.032941     beta(Z;X,Z) = beta(Z,Z,X)
@ B-freq = 0.049411  C-freq = 0.032941     beta(X;X,Z) = beta(X,Z,X)
@ B-freq = 0.049411  C-freq = 0.032941     beta(Y;X,Z) = beta(Y,Z,X)
@ B-freq = 0.049411  C-freq = 0.032941     beta(Z;X,Z) = beta(Z,Z,X)
@ B-freq = 0.065882  C-freq = 0.032941     beta(X;X,Z) = beta(X,Z,X)
@ B-freq = 0.065882  C-freq = 0.032941     beta(Y;X,Z) = beta(Y,Z,X)
@ B-freq = 0.065882  C-freq = 0.032941     beta(Z;X,Z) = beta(Z,Z,X)
@ B-freq = 0.000000  C-freq = 0.032941     beta(X;Y,Z) = beta(X,Z,Y)
@ B-freq = 0.000000  C-freq = 0.032941     beta(Y;Y,Z) = beta(Y,Z,Y)
@ B-freq = 0.000000  C-freq = 0.032941     beta(Z;Y,Z) = beta(Z,Z,Y)
@ B-freq = 0.016470  C-freq = 0.032941     beta(X;Y,Z) = beta(X,Z,Y)
@ B-freq = 0.016470  C-freq = 0.032941     beta(Y;Y,Z) = beta(Y,Z,Y)
@ B-freq = 0.016470  C-freq = 0.032941     beta(Z;Y,Z) = beta(Z,Z,Y)
@ B-freq = 0.032941  C-freq = 0.032941     beta(X;Y,Z) = beta(X,Z,Y)
@ B-freq = 0.032941  C-freq = 0.032941     beta(Y;Y,Z) = beta(Y,Z,Y)
@ B-freq = 0.032941  C-freq = 0.032941     beta(Z;Y,Z) = beta(Z,Z,Y)
@ B-freq = 0.049411  C-freq = 0.032941     beta(X;Y,Z) = beta(X,Z,Y)
@ B-freq = 0.049411  C-freq = 0.032941     beta(Y;Y,Z) = beta(Y,Z,Y)
@ B-freq = 0.049411  C-freq = 0.032941     beta(Z;Y,Z) = beta(Z,Z,Y)
@ B-freq = 0.065882  C-freq = 0.032941     beta(X;Y,Z) = beta(X,Z,Y)
@ B-freq = 0.065882  C-freq = 0.032941     beta(Y;Y,Z) = beta(Y,Z,Y)
@ B-freq = 0.065882  C-freq = 0.032941     beta(Z;Y,Z) = beta(Z,Z,Y)
@ B-freq = 0.000000  C-freq = 0.032941     beta(X;Z,Z) = beta(X,Z,Z)
@ B-freq = 0.000000  C-freq = 0.032941     beta(Y;Z,Z) = beta(Y,Z,Z)
@ B-freq = 0.000000  C-freq = 0.032941     beta(Z;Z,Z) = beta(Z,Z,Z)
@ B-freq = 0.016470  C-freq = 0.032941     beta(X;Z,Z) = beta(X,Z,Z)
@ B-freq = 0.016470  C-freq = 0.032941     beta(Y;Z,Z) = beta(Y,Z,Z)
@ B-freq = 0.016470  C-freq = 0.032941     beta(Z;Z,Z) = beta(Z,Z,Z)
@ B-freq = 0.032941  C-freq = 0.032941     beta(X;Z,Z) =     -0.00048545
@ B-freq = 0.032941  C-freq = 0.032941     beta(Y;Z,Z) =     -0.00313735
@ B-freq = 0.032941  C-freq = 0.032941     beta(Z;Z,Z) =    -32.64210057
@ B-freq = 0.049411  C-freq = 0.032941     beta(X;Z,Z) =     -0.00033125
@ B-freq = 0.049411  C-freq = 0.032941     beta(Y;Z,Z) =     -0.00342266
@ B-freq = 0.049411  C-freq = 0.032941     beta(Z;Z,Z) =    -34.09856691
@ B-freq = 0.065882  C-freq = 0.032941     beta(X;Z,Z) =     -0.00008355
@ B-freq = 0.065882  C-freq = 0.032941     beta(Y;Z,Z) =     -0.00384435
@ B-freq = 0.065882  C-freq = 0.032941     beta(Z;Z,Z) =    -36.12566886
@ B-freq = 0.000000  C-freq = 0.049411     beta(X;X,Z) = beta(X,Z,X)
@ B-freq = 0.000000  C-freq = 0.049411     beta(Y;X,Z) = beta(Y,Z,X)
@ B-freq = 0.000000  C-freq = 0.049411     beta(Z;X,Z) = beta(Z,Z,X)
@ B-freq = 0.016470  C-freq = 0.049411     beta(X;X,Z) = beta(X,Z,X)
@ B-freq = 0.016470  C-freq = 0.049411     beta(Y;X,Z) = beta(Y,Z,X)
@ B-freq = 0.016470  C-freq = 0.049411     beta(Z;X,Z) = beta(Z,Z,X)
@ B-freq = 0.032941  C-freq = 0.049411     beta(X;X,Z) = beta(X,Z,X)
@ B-freq = 0.032941  C-freq = 0.049411     beta(Y;X,Z) = beta(Y,Z,X)
@ B-freq = 0.032941  C-freq = 0.049411     beta(Z;X,Z) = beta(Z,Z,X)
@ B-freq = 0.049411  C-freq = 0.049411     beta(X;X,Z) = beta(X,Z,X)
@ B-freq = 0.049411  C-freq = 0.049411     beta(Y;X,Z) = beta(Y,Z,X)
@ B-freq = 0.049411  C-freq = 0.049411     beta(Z;X,Z) = beta(Z,Z,X)
@ B-freq = 0.065882  C-freq = 0.049411     beta(X;X,Z) = beta(X,Z,X)
@ B-freq = 0.065882  C-freq = 0.049411     beta(Y;X,Z) = beta(Y,Z,X)
@ B-freq = 0.065882  C-freq = 0.049411     beta(Z;X,Z) = beta(Z,Z,X)
@ B-freq = 0.000000  C-freq = 0.049411     beta(X;Y,Z) = beta(X,Z,Y)
@ B-freq = 0.000000  C-freq = 0.049411     beta(Y;Y,Z) = beta(Y,Z,Y)
@ B-freq = 0.000000  C-freq = 0.049411     beta(Z;Y,Z) = beta(Z,Z,Y)
@ B-freq = 0.016470  C-freq = 0.049411     beta(X;Y,Z) = beta(X,Z,Y)
@ B-freq = 0.016470  C-freq = 0.049411     beta(Y;Y,Z) = beta(Y,Z,Y)
@ B-freq = 0.016470  C-freq = 0.049411     beta(Z;Y,Z) = beta(Z,Z,Y)
@ B-freq = 0.032941  C-freq = 0.049411     beta(X;Y,Z) = beta(X,Z,Y)
@ B-freq = 0.032941  C-freq = 0.049411     beta(Y;Y,Z) = beta(Y,Z,Y)
@ B-freq = 0.032941  C-freq = 0.049411     beta(Z;Y,Z) = beta(Z,Z,Y)
@ B-freq = 0.049411  C-freq = 0.049411     beta(X;Y,Z) = beta(X,Z,Y)
@ B-freq = 0.049411  C-freq = 0.049411     beta(Y;Y,Z) = beta(Y,Z,Y)
@ B-freq = 0.049411  C-freq = 0.049411     beta(Z;Y,Z) = beta(Z,Z,Y)
@ B-freq = 0.065882  C-freq = 0.049411     beta(X;Y,Z) = beta(X,Z,Y)
@ B-freq = 0.065882  C-freq = 0.049411     beta(Y;Y,Z) = beta(Y,Z,Y)
@ B-freq = 0.065882  C-freq = 0.049411     beta(Z;Y,Z) = beta(Z,Z,Y)
@ B-freq = 0.000000  C-freq = 0.049411     beta(X;Z,Z) = beta(X,Z,Z)
@ B-freq = 0.000000  C-freq = 0.049411     beta(Y;Z,Z) = beta(Y,Z,Z)
@ B-freq = 0.000000  C-freq = 0.049411     beta(Z;Z,Z) = beta(Z,Z,Z)
@ B-freq = 0.016470  C-freq = 0.049411     beta(X;Z,Z) = beta(X,Z,Z)
@ B-freq = 0.016470  C-freq = 0.049411     beta(Y;Z,Z) = beta(Y,Z,Z)
@ B-freq = 0.016470  C-freq = 0.049411     beta(Z;Z,Z) = beta(Z,Z,Z)
@ B-freq = 0.032941  C-freq = 0.049411     beta(X;Z,Z) = beta(X,Z,Z)
@ B-freq = 0.032941  C-freq = 0.049411     beta(Y;Z,Z) = beta(Y,Z,Z)
@ B-freq = 0.032941  C-freq = 0.049411     beta(Z;Z,Z) = beta(Z,Z,Z)
@ B-freq = 0.049411  C-freq = 0.049411     beta(X;Z,Z) =      0.00000428
@ B-freq = 0.049411  C-freq = 0.049411     beta(Y;Z,Z) =     -0.00375394
@ B-freq = 0.049411  C-freq = 0.049411     beta(Z;Z,Z) =    -35.89191051
@ B-freq = 0.065882  C-freq = 0.049411     beta(X;Z,Z) =      0.00054807
@ B-freq = 0.065882  C-freq = 0.049411     beta(Y;Z,Z) =     -0.00423071
@ B-freq = 0.065882  C-freq = 0.049411     beta(Z;Z,Z) =    -38.35072459
@ B-freq = 0.000000  C-freq = 0.065882     beta(X;X,Z) = beta(X,Z,X)
@ B-freq = 0.000000  C-freq = 0.065882     beta(Y;X,Z) = beta(Y,Z,X)
@ B-freq = 0.000000  C-freq = 0.065882     beta(Z;X,Z) = beta(Z,Z,X)
@ B-freq = 0.016470  C-freq = 0.065882     beta(X;X,Z) = beta(X,Z,X)
@ B-freq = 0.016470  C-freq = 0.065882     beta(Y;X,Z) = beta(Y,Z,X)
@ B-freq = 0.016470  C-freq = 0.065882     beta(Z;X,Z) = beta(Z,Z,X)
@ B-freq = 0.032941  C-freq = 0.065882     beta(X;X,Z) = beta(X,Z,X)
@ B-freq = 0.032941  C-freq = 0.065882     beta(Y;X,Z) = beta(Y,Z,X)
@ B-freq = 0.032941  C-freq = 0.065882     beta(Z;X,Z) = beta(Z,Z,X)
@ B-freq = 0.049411  C-freq = 0.065882     beta(X;X,Z) = beta(X,Z,X)
@ B-freq = 0.049411  C-freq = 0.065882     beta(Y;X,Z) = beta(Y,Z,X)
@ B-freq = 0.049411  C-freq = 0.065882     beta(Z;X,Z) = beta(Z,Z,X)
@ B-freq = 0.065882  C-freq = 0.065882     beta(X;X,Z) = beta(X,Z,X)
@ B-freq = 0.065882  C-freq = 0.065882     beta(Y;X,Z) = beta(Y,Z,X)
@ B-freq = 0.065882  C-freq = 0.065882     beta(Z;X,Z) = beta(Z,Z,X)
@ B-freq = 0.000000  C-freq = 0.065882     beta(X;Y,Z) = beta(X,Z,Y)
@ B-freq = 0.000000  C-freq = 0.065882     beta(Y;Y,Z) = beta(Y,Z,Y)
@ B-freq = 0.000000  C-freq = 0.065882     beta(Z;Y,Z) = beta(Z,Z,Y)
@ B-freq = 0.016470  C-freq = 0.065882     beta(X;Y,Z) = beta(X,Z,Y)
@ B-freq = 0.016470  C-freq = 0.065882     beta(Y;Y,Z) = beta(Y,Z,Y)
@ B-freq = 0.016470  C-freq = 0.065882     beta(Z;Y,Z) = beta(Z,Z,Y)
@ B-freq = 0.032941  C-freq = 0.065882     beta(X;Y,Z) = beta(X,Z,Y)
@ B-freq = 0.032941  C-freq = 0.065882     beta(Y;Y,Z) = beta(Y,Z,Y)
@ B-freq = 0.032941  C-freq = 0.065882     beta(Z;Y,Z) = beta(Z,Z,Y)
@ B-freq = 0.049411  C-freq = 0.065882     beta(X;Y,Z) = beta(X,Z,Y)
@ B-freq = 0.049411  C-freq = 0.065882     beta(Y;Y,Z) = beta(Y,Z,Y)
@ B-freq = 0.049411  C-freq = 0.065882     beta(Z;Y,Z) = beta(Z,Z,Y)
@ B-freq = 0.065882  C-freq = 0.065882     beta(X;Y,Z) = beta(X,Z,Y)
@ B-freq = 0.065882  C-freq = 0.065882     beta(Y;Y,Z) = beta(Y,Z,Y)
@ B-freq = 0.065882  C-freq = 0.065882     beta(Z;Y,Z) = beta(Z,Z,Y)
@ B-freq = 0.000000  C-freq = 0.065882     beta(X;Z,Z) = beta(X,Z,Z)
@ B-freq = 0.000000  C-freq = 0.065882     beta(Y;Z,Z) = beta(Y,Z,Z)
@ B-freq = 0.000000  C-freq = 0.065882     beta(Z;Z,Z) = beta(Z,Z,Z)
@ B-freq = 0.016470  C-freq = 0.065882     beta(X;Z,Z) = beta(X,Z,Z)
@ B-freq = 0.016470  C-freq = 0.065882     beta(Y;Z,Z) = beta(Y,Z,Z)
@ B-freq = 0.016470  C-freq = 0.065882     beta(Z;Z,Z) = beta(Z,Z,Z)
@ B-freq = 0.032941  C-freq = 0.065882     beta(X;Z,Z) = beta(X,Z,Z)
@ B-freq = 0.032941  C-freq = 0.065882     beta(Y;Z,Z) = beta(Y,Z,Z)
@ B-freq = 0.032941  C-freq = 0.065882     beta(Z;Z,Z) = beta(Z,Z,Z)
@ B-freq = 0.049411  C-freq = 0.065882     beta(X;Z,Z) = beta(X,Z,Z)
@ B-freq = 0.049411  C-freq = 0.065882     beta(Y;Z,Z) = beta(Y,Z,Z)
@ B-freq = 0.049411  C-freq = 0.065882     beta(Z;Z,Z) = beta(Z,Z,Z)
@ B-freq = 0.065882  C-freq = 0.065882     beta(X;Z,Z) =      0.00159016
@ B-freq = 0.065882  C-freq = 0.065882     beta(Y;Z,Z) =     -0.00476749
@ B-freq = 0.065882  C-freq = 0.065882     beta(Z;Z,Z) =    -41.37986876

  Total CPU  time used in RESPONSE:   1 hour  10 minutes 20 seconds
  Total wall time used in RESPONSE:   1 hour  10 minutes 45 seconds


                   .-------------------------------------------.
                   | End of Dynamic Property Section (RESPONS) |
                   `-------------------------------------------'

  Total CPU  time used in DALTON:   1 hour  14 minutes 27 seconds
  Total wall time used in DALTON:   1 hour  14 minutes 53 seconds

 
     Date and time (Linux)  : Tue Jul 23 15:13:54 2024
     Host name              : dn012                                   
