

     ************************************************************************
     *************** Dalton - An Electronic Structure Program ***************
     ************************************************************************

    This is output from DALTON release Dalton2020.0 (2020)
         ( Web site: http://daltonprogram.org )

   ----------------------------------------------------------------------------

    NOTE:
     
    Dalton is an experimental code for the evaluation of molecular
    properties using (MC)SCF, DFT, CI, and CC wave functions.
    The authors accept no responsibility for the performance of
    the code or for the correctness of the results.
     
    The code (in whole or part) is provided under a licence and
    is not to be reproduced for further distribution without
    the written permission of the authors or their representatives.
     
    See the home page "http://daltonprogram.org" for further information.
     
    If results obtained with this code are published,
    the appropriate citations would be both of:
     
       K. Aidas, C. Angeli, K. L. Bak, V. Bakken, R. Bast,
       L. Boman, O. Christiansen, R. Cimiraglia, S. Coriani,
       P. Dahle, E. K. Dalskov, U. Ekstroem,
       T. Enevoldsen, J. J. Eriksen, P. Ettenhuber, B. Fernandez,
       L. Ferrighi, H. Fliegl, L. Frediani, K. Hald, A. Halkier,
       C. Haettig, H. Heiberg, T. Helgaker, A. C. Hennum,
       H. Hettema, E. Hjertenaes, S. Hoest, I.-M. Hoeyvik,
       M. F. Iozzi, B. Jansik, H. J. Aa. Jensen, D. Jonsson,
       P. Joergensen, J. Kauczor, S. Kirpekar,
       T. Kjaergaard, W. Klopper, S. Knecht, R. Kobayashi, H. Koch,
       J. Kongsted, A. Krapp, K. Kristensen, A. Ligabue,
       O. B. Lutnaes, J. I. Melo, K. V. Mikkelsen, R. H. Myhre,
       C. Neiss, C. B. Nielsen, P. Norman, J. Olsen,
       J. M. H. Olsen, A. Osted, M. J. Packer, F. Pawlowski,
       T. B. Pedersen, P. F. Provasi, S. Reine, Z. Rinkevicius,
       T. A. Ruden, K. Ruud, V. Rybkin, P. Salek, C. C. M. Samson,
       A. Sanchez de Meras, T. Saue, S. P. A. Sauer,
       B. Schimmelpfennig, K. Sneskov, A. H. Steindal,
       K. O. Sylvester-Hvid, P. R. Taylor, A. M. Teale,
       E. I. Tellgren, D. P. Tew, A. J. Thorvaldsen, L. Thoegersen,
       O. Vahtras, M. A. Watson, D. J. D. Wilson, M. Ziolkowski
       and H. Agren,
       "The Dalton quantum chemistry program system",
       WIREs Comput. Mol. Sci. 2014, 4:269–284 (doi: 10.1002/wcms.1172)
     
    and
     
       Dalton, a molecular electronic structure program,
       Release Dalton2020.0 (2020), see http://daltonprogram.org
   ----------------------------------------------------------------------------

    Authors in alphabetical order (Major contribution(s) in parenthesis):

  Kestutis Aidas,           Vilnius University,           Lithuania   (QM/MM)
  Celestino Angeli,         University of Ferrara,        Italy       (NEVPT2)
  Keld L. Bak,              UNI-C,                        Denmark     (AOSOPPA, non-adiabatic coupling, magnetic properties)
  Vebjoern Bakken,          University of Oslo,           Norway      (DALTON; geometry optimizer, symmetry detection)
  Radovan Bast,             UiT The Arctic U. of Norway,  Norway      (DALTON installation and execution frameworks)
  Pablo Baudin,             University of Valencia,       Spain       (Cholesky excitation energies)
  Linus Boman,              NTNU,                         Norway      (Cholesky decomposition and subsystems)
  Bruno N. Cabral Tenorio,  Technical Univ. of Denmark,   Denmark     (Lanczos-based CC methods)
  Ove Christiansen,         Aarhus University,            Denmark     (CC module)
  Renzo Cimiraglia,         University of Ferrara,        Italy       (NEVPT2)
  Sonia Coriani,            Technical Univ. of Denmark,   Denmark     (CC and RESPONS modules)
  Janusz Cukras,            University of Warsaw,         Poland      (MChD in RESPONS)
  Paal Dahle,               University of Oslo,           Norway      (Parallelization)
  Erik K. Dalskov,          UNI-C,                        Denmark     (SOPPA)
  Thomas Enevoldsen,        Univ. of Southern Denmark,    Denmark     (SOPPA)
  Janus J. Eriksen,         Aarhus University,            Denmark     (Polarizable embedding, TDA)
  Rasmus Faber,             Technical Univ. of Denmark,   Denmark     (Vib.avg. NMR w. SOPPA, parallel AO-SOPPA, CVS-CC and EOMCC)
  Tobias Fahleson,          KTH Stockholm,                Sweden      (Damped cubic response)
  Berta Fernandez,          U. of Santiago de Compostela, Spain       (Doublet spin, ESR in RESPONS)
  Lara Ferrighi,            Aarhus University,            Denmark     (PCM Cubic response)
  Heike Fliegl,             University of Oslo,           Norway      (CCSD(R12))
  Luca Frediani,            UiT The Arctic U. of Norway,  Norway      (PCM)
  Emmanuel Fromager,        Univ. Strasbourg,             France      (MC-srDFT)
  Bin Gao,                  UiT The Arctic U. of Norway,  Norway      (Gen1Int library)
  Andre S. P. Gomes,        CNRS/Universite de Lille,     France      (Frozen density embedding)
  Christof Haettig,         Ruhr-University Bochum,       Germany     (CC module)
  Kasper Hald,              Aarhus University,            Denmark     (CC module)
  Asger Halkier,            Aarhus University,            Denmark     (CC module)
  Frederik Beyer Hansen,    University of Copenhagen,     Denmark     (Parallel AO-SOPPA)
  Erik D. Hedegaard,        Univ. of Southern Denmark,    Denmark     (Polarizable embedding, QM/MM, and MC-srDFT)
  Hanne Heiberg,            University of Oslo,           Norway      (Geometry analysis, selected one-electron integrals)
  Trygve Helgaker,          University of Oslo,           Norway      (DALTON; ABACUS, ERI, DFT modules, London, and much more)
  Alf Christian Hennum,     University of Oslo,           Norway      (Parity violation)
  Hinne Hettema,            University of Auckland,       New Zealand (Quadratic response in RESPONS; SIRIUS supersymmetry)
  Eirik Hjertenaes,         NTNU,                         Norway      (Cholesky decomposition)
  Pi A. B. Haase,           University of Copenhagen,     Denmark     (Triplet AO-SOPPA)
  Maria Francesca Iozzi,    University of Oslo,           Norway      (RPA)
  Christoph Jacob           TU Braunschweig               Germany     (Frozen density embedding)
  Brano Jansik              Technical Univ. of Ostrava    Czech Rep.  (DFT cubic response)
  Hans Joergen Aa. Jensen,  Univ. of Southern Denmark,    Denmark     (DALTON; SIRIUS, RESPONS, ABACUS, MC-srDFT, and much more)
  Dan Jonsson,              UiT The Arctic U. of Norway,  Norway      (Cubic response in RESPONS module)
  Poul Joergensen,          Aarhus University,            Denmark     (RESPONS, ABACUS, and CC modules)
  Maciej Kaminski,          University of Warsaw,         Poland      (CPPh in RESPONS)
  Joanna Kauczor,           Linkoeping University,        Sweden      (Complex polarization propagator (CPP) module)
  Sheela Kirpekar,          Univ. of Southern Denmark,    Denmark     (Mass-velocity & Darwin integrals)
  Erik Kjellgren,           Univ. of Southern Denmark,    Denmark     (MC-srDFT)
  Wim Klopper,              KIT Karlsruhe,                Germany     (R12 code in CC, SIRIUS, and ABACUS modules)
  Stefan Knecht,            ETH Zurich,                   Switzerland (Parallel CI and MCSCF, MC-srDFT)
  Rika Kobayashi,           Australian National Univ.,    Australia   (DIIS in CC, London in MCSCF)
  Henrik Koch,              NTNU,                         Norway      (CC module, Cholesky decomposition)
  Jacob Kongsted,           Univ. of Southern Denmark,    Denmark     (Polarizable embedding, polarizable density embedding, QM/MM)
  Andrea Ligabue,           University of Modena,         Italy       (CTOCD, AOSOPPA)
  Nanna H. List             Univ. of Southern Denmark,    Denmark     (Polarizable embedding)
  Ola B. Lutnaes,           University of Oslo,           Norway      (DFT Hessian)
  Juan I. Melo,             University of Buenos Aires,   Argentina   (LRESC, Relativistic Effects on NMR Shieldings)
  Kurt V. Mikkelsen,        University of Copenhagen,     Denmark     (MC-SCRF and QM/MM)
  Rolf H. Myhre,            NTNU,                         Norway      (Subsystems and CC3)
  Christian Neiss,          Univ. Erlangen-Nuernberg,     Germany     (CCSD(R12))
  Christian B. Nielsen,     University of Copenhagen,     Denmark     (QM/MM)
  Patrick Norman,           KTH Stockholm,                Sweden      (Cubic response and complex frequency response in RESPONS)
  Jeppe Olsen,              Aarhus University,            Denmark     (SIRIUS CI/density modules)
  Jogvan Magnus H. Olsen,   Aarhus University,            Denmark     (Polarizable embedding and polarizable density embedding)
  Anders Osted,             Copenhagen University,        Denmark     (QM/MM)
  Martin J. Packer,         University of Sheffield,      UK          (SOPPA)
  Filip Pawlowski,          Kazimierz Wielki University,  Poland      (CC3)
  Morten N. Pedersen,       Univ. of Southern Denmark,    Denmark     (Polarizable embedding)
  Thomas B. Pedersen,       University of Oslo,           Norway      (Cholesky decomposition)
  Patricio F. Provasi,      University of Northeastern,   Argentina   (Analysis of coupling constants in localized orbitals)
  Peter Reinholdt,          Univ. of Southern Denmark,    Denmark     (Polarizable embedding and polarizable density embedding)
  Zilvinas Rinkevicius,     KTH Stockholm,                Sweden      (open-shell DFT, ESR)
  Elias Rudberg,            KTH Stockholm,                Sweden      (DFT grid and basis info)
  Torgeir A. Ruden,         University of Oslo,           Norway      (Numerical derivatives in ABACUS)
  Kenneth Ruud,             UiT The Arctic U. of Norway,  Norway      (DALTON; ABACUS magnetic properties and much more)
  Pawel Salek,              KTH Stockholm,                Sweden      (DALTON; DFT code)
  Claire C. M. Samson       University of Karlsruhe       Germany     (Boys localization, r12 integrals in ERI)
  Alfredo Sanchez de Meras, University of Valencia,       Spain       (CC module, Cholesky decomposition)
  Trond Saue,               Paul Sabatier University,     France      (direct Fock matrix construction)
  Stephan P. A. Sauer,      University of Copenhagen,     Denmark     (SOPPA(CCSD), SOPPA prop., AOSOPPA, vibrational g-factors)
  Bernd Schimmelpfennig,    Forschungszentrum Karlsruhe,  Germany     (AMFI module)
  Anna K. Schnack-Petersen, University of Copenhagen,     Denmark     (RPA(D) and HRPA(D) properties in AOSOPPA)
  Kristian Sneskov,         Aarhus University,            Denmark     (Polarizable embedding, QM/MM)
  Arnfinn H. Steindal,      UiT The Arctic U. of Norway,  Norway      (parallel QM/MM, polarizable embedding)
  Casper Steinmann,         Aalborg University,           Denmark     (QFIT, polarizable embedding)
  K. O. Sylvester-Hvid,     University of Copenhagen,     Denmark     (MC-SCRF)
  Peter R. Taylor,          VLSCI/Univ. of Melbourne,     Australia   (Symmetry handling ABACUS, integral transformation)
  Andrew M. Teale,          University of Nottingham,     England     (DFT-AC, DFT-D)
  David P. Tew,             University of Bristol,        England     (CCSD(R12))
  Julien Toulouse,          Sorbonne Univ.,               France      (MC-srDFT)
  Olav Vahtras,             KTH Stockholm,                Sweden      (Triplet response, spin-orbit, ESR, TDDFT, open-shell DFT)
  Lucas Visscher,           Vrije Universiteit Amsterdam, Netherlands (Frozen density embedding)
  David J. Wilson,          La Trobe University,          Australia   (DFT Hessian and DFT magnetizabilities)
  Hans Agren,               KTH Stockholm,                Sweden      (SIRIUS module, RESPONS, MC-SCRF solvation)
 --------------------------------------------------------------------------------

     Date and time (Linux)  : Thu Sep  7 18:15:49 2023
     Host name              : sn-mem                                  

 * Work memory size             :    64000000 =  488.28 megabytes.

 * Directories for basis set searches:
   1) /gpfs/projects/rjh/adrian/august_no_symmetry/dalton/hf/H2O/dipole
   2) /gpfs/projects/rjh/adrian/dalton/build/basis


Compilation information
-----------------------

 Who compiled             | ahurtado
 Host                     | sn-mem
 System                   | Linux-3.10.0-1160.24.1.el7.x86_64
 CMake generator          | Unix Makefiles
 Processor                | x86_64
 64-bit integers          | OFF
 MPI                      | ON
 Fortran compiler         | /gpfs/software/intel/oneAPI/2021_4/mpi/2021.4.0/bi
                          | n/mpif90
 Fortran compiler version | GNU Fortran (GCC) 11.2.0
 C compiler               | /gpfs/software/intel/oneAPI/2021_4/mpi/2021.4.0/bi
                          | n/mpicc
 C compiler version       | gcc (GCC) 11.2.0
 C++ compiler             | /gpfs/software/intel/oneAPI/2021_4/mpi/2021.4.0/bi
                          | n/mpicxx
 C++ compiler version     | unknown
 BLAS                     | /gpfs/software/intel/oneAPI/2021_4/mkl/2021.4.0/li
                          | b/intel64/libmkl_gf_lp64.so;/gpfs/software/intel/o
                          | neAPI/2021_4/mkl/2021.4.0/lib/intel64/libmkl_seque
                          | ntial.so;/gpfs/software/intel/oneAPI/2021_4/mkl/20
                          | 21.4.0/lib/intel64/libmkl_core.so;/usr/lib64/libpt
                          | hread.so;/usr/lib64/libm.so
 LAPACK                   | /gpfs/software/intel/oneAPI/2021_4/mkl/2021.4.0/li
                          | b/intel64/libmkl_lapack95_lp64.a;/gpfs/software/in
                          | tel/oneAPI/2021_4/mkl/2021.4.0/lib/intel64/libmkl_
                          | gf_lp64.so
 Static linking           | OFF
 Last Git revision        | 66052b3af5ea7225e31178bf9a8b031913c72190
 Git branch               | (HEAD detached at Dalton2020.0)
 Configuration time       | 2023-01-11 13:33:37.731835

 * MPI parallel run using 5 processes.


   Content of the .dal input file
 ----------------------------------

**DALTON INPUT
.RUN RESPONSE
.DIRECT
**WAVE FUNCTIONS
.HF
**PROPERTIES
**RESPONSE
*QUADRA
.DIPLEN
.FREQUENCIES
5
0.0 0.0198666875 0.039733375 0.0596000625 0.07946675
**END OF DALTON INPUT


   Content of the .mol file
 ----------------------------

BASIS
d-aug-cc-pV5Z
blah
blah
Atomtype=2 Angstrom Charge=0 Nosymmmetry
Charge=8 Atoms=1
O_a 0.000000000000 0.000000000000 0.117299997610
Charge=1 Atoms=2
H_a 0.000000000000 0.757199998838 -0.469200001024
H_b 0.000000000000 -0.757199998838 -0.469200001024


       *******************************************************************
       *********** Output from DALTON general input processing ***********
       *******************************************************************

 --------------------------------------------------------------------------------
   Overall default print level:    0
   Print level for DALTON.STAT:    1

    Parallel calculation using MPI
    AO-direct calculation (in sections where implemented)
    HERMIT 1- and 2-electron integral sections will be executed
    "Old" integral transformation used (limited to max 255 basis functions)
    Wave function sections will be executed (SIRIUS module)
    Dynamic molecular response properties section will be executed (RESPONSE module)
 --------------------------------------------------------------------------------


   ****************************************************************************
   *************** Output of molecule and basis set information ***************
   ****************************************************************************


    The two title cards from your ".mol" input:
    ------------------------------------------------------------------------
 1: blah                                                                    
 2: blah                                                                    
    ------------------------------------------------------------------------

  Coordinates are entered in Angstrom and converted to atomic units.
          - Conversion factor : 1 bohr = 0.52917721 A

  Atomic type no.    1
  --------------------
  Nuclear charge:   8.00000
  Number of symmetry independent centers:    1
  Number of basis sets to read;    2
  Basis set file used for this atomic type with Z =   8 :
     "/gpfs/projects/rjh/adrian/dalton/build/basis/aug-cc-pV5Z"

  Atomic type no.    2
  --------------------
  Nuclear charge:   1.00000
  Number of symmetry independent centers:    2
  Number of basis sets to read;    2
  Basis set file used for this atomic type with Z =   1 :
     "/gpfs/projects/rjh/adrian/dalton/build/basis/aug-cc-pV5Z"


                         SYMGRP: Point group information
                         -------------------------------

@    Point group: C1 


                                 Isotopic Masses
                                 ---------------

                           O_a        15.994915
                           H_a         1.007825
                           H_b         1.007825

                       Total mass:    18.010565 amu
                       Natural abundance:  99.730 %

 Center-of-mass coordinates (a.u.):    0.000000    0.000000    0.097627
 Center-of-mass coordinates (Angs):    0.000000    0.000000    0.051662


  Atoms and basis sets
  --------------------

  Number of atom types :    2
  Total number of atoms:    3

  Basis set used is "d-aug-cc-pV5Z" from the basis set library.

  label    atoms   charge   prim   cont     basis
  ----------------------------------------------------------------------
  O_          1    8.0000   180   163      [16s10p6d5f4g3h|8s7p6d5f4g3h]                      
  H_          2    1.0000   108   105      [10s6p5d4f3g|7s6p5d4f3g]                           
  ----------------------------------------------------------------------
  total:      3   10.0000   396   373
  ----------------------------------------------------------------------
  Spherical harmonic basis used.

  Threshold for neglecting AO integrals:  1.00D-12


  Cartesian Coordinates (a.u.)
  ----------------------------

  Total number of coordinates:    9
  O_a     :     1  x   0.0000000000    2  y   0.0000000000    3  z   0.2216648699
  H_a     :     4  x   0.0000000000    5  y   1.4309006196    6  z  -0.8866594998
  H_b     :     7  x   0.0000000000    8  y  -1.4309006196    9  z  -0.8866594998


   Interatomic separations (in Angstrom):
   --------------------------------------

            O_a         H_a         H_b   
            ------      ------      ------
 O_a   :    0.000000
 H_a   :    0.957776    0.000000
 H_b   :    0.957776    1.514400    0.000000


  Max    interatomic separation is    1.5144 Angstrom (    2.8618 Bohr)
  between atoms    3 and    2, "H_b   " and "H_a   ".

  Min HX interatomic separation is    0.9578 Angstrom (    1.8099 Bohr)


  Bond distances (Angstrom):
  --------------------------

                  atom 1     atom 2       distance
                  ------     ------       --------
  bond distance:  H_a        O_a          0.957776
  bond distance:  H_b        O_a          0.957776


  Bond angles (degrees):
  ----------------------

                  atom 1     atom 2     atom 3         angle
                  ------     ------     ------         -----
  bond angle:     H_a        O_a        H_b          104.480




 Principal moments of inertia (u*A**2) and principal axes
 --------------------------------------------------------

   IA       0.615752          0.000000    1.000000    0.000000
   IB       1.155677          0.000000    0.000000    1.000000
   IC       1.771429          1.000000    0.000000    0.000000


 Rotational constants
 --------------------

@    The molecule is planar.

               A                   B                   C

         820751.0438         437301.3971         285294.6081 MHz
           27.377308           14.586804            9.516404 cm-1


@  Nuclear repulsion energy :    9.189533777587 Hartree


                     .---------------------------------------.
                     | Starting in Integral Section (HERMIT) |
                     `---------------------------------------'



 ***************************************************************************************
 ****************** Output from **INTEGRALS input processing (HERMIT) ******************
 ***************************************************************************************


 - Using defaults, no **INTEGRALS input found

 Default print level:        1

 Calculation of one-electron Hamiltonian integrals.

 Center of mass  (bohr):      0.000000000000      0.000000000000      0.097626894688
 Operator center (bohr):      0.000000000000      0.000000000000      0.000000000000
 Gauge origin    (bohr):      0.000000000000      0.000000000000      0.000000000000
 Dipole origin   (bohr):      0.000000000000      0.000000000000      0.000000000000


     ************************************************************************
     ************************** Output from HERINT **************************
     ************************************************************************



                      Nuclear contribution to dipole moments
                      --------------------------------------

                 au               Debye          C m (/(10**-30)

      x      0.00000000         0.00000000         0.00000000
      y      0.00000000         0.00000000         0.00000000
      z     -0.00000004        -0.00000010        -0.00000034


  Time used in ONEDRV     is       0.21 seconds
  Time used in GABGEN     is       4.52 seconds
  Total CPU  time used in HERMIT:   5.26 seconds
  Total wall time used in HERMIT:   5.28 seconds


                        .----------------------------------.
                        | End of Integral Section (HERMIT) |
                        `----------------------------------'



                   .--------------------------------------------.
                   | Starting in Wave Function Section (SIRIUS) |
                   `--------------------------------------------'


 *** Output from Huckel module :

     Using EWMO model:          T
     Using EHT  model:          F
     Number of Huckel orbitals each symmetry:    7

 EWMO - Energy Weighted Maximum Overlap - is a Huckel type method,
        which normally is better than Extended Huckel Theory.
 Reference: Linderberg and Ohrn, Propagators in Quantum Chemistry (Wiley, 1973)

 Huckel EWMO eigenvalues for symmetry :  1
          -20.684959      -1.611341      -0.778168      -0.688462      -0.616200
           -0.232449      -0.168322

 **********************************************************************
 *SIRIUS* a direct, restricted step, second order MCSCF program       *
 **********************************************************************

 
     Date and time (Linux)  : Thu Sep  7 18:15:57 2023
     Host name              : sn-mem                                  

 Title lines from ".mol" input file:
     blah                                                                    
     blah                                                                    

 Print level on unit LUPRI =   2 is   0
 Print level on unit LUW4  =   2 is   5

@    Restricted, closed shell Hartree-Fock calculation.

@    Time-dependent Hartree-Fock calculation (random phase approximation).
 Fock matrices are calculated directly and in parallel without use of integrals on disk.

 Initial molecular orbitals are obtained according to
 ".MOSTART EWMO  " input option

     Wave function specification
     ============================
@    Wave function type        --- HF ---
@    Number of closed shell electrons          10
@    Number of electrons in active shells       0
@    Total charge of the molecule               0

@    Spin multiplicity and 2 M_S                1         0
@    Total number of symmetries                 1 (point group: C1 )
@    Reference state symmetry                   1 (irrep name : A  )

     Orbital specifications
     ======================
@    Abelian symmetry species          All |    1
@                                          |  A  
                                       --- |  ---
@    Occupied SCF orbitals               5 |    5
@    Secondary orbitals                368 |  368
@    Total number of orbitals          373 |  373
@    Number of basis functions         373 |  373

     Optimization information
     ========================
@    Number of configurations                 1
@    Number of orbital rotations           1840
     ------------------------------------------
@    Total number of variables             1841

     Maximum number of Fock   iterations      0
     Maximum number of DIIS   iterations     60
     Maximum number of QC-SCF iterations     60
     Threshold for SCF convergence     1.00D-05

    INFORMATION: Switched to "new" integral transformation (from 1988 ;-) )
    because more than 255 basis functions.


 ***********************************************
 ***** DIIS acceleration of SCF iterations *****
 ***********************************************

 C1-DIIS algorithm; max error vectors =    8

 Iter      Total energy        Error norm    Delta(E)  DIIS dim.
 -----------------------------------------------------------------------------
   1  Screening settings (-IFTHRS, JTDIIS, DIFDEN, times)   -9    1    T  5.92D+01  5.92D+01
@  1    -75.8785965985        2.03214D+00   -7.59D+01    1
      Virial theorem: -V/T =      1.996761
@    MULPOP   O_a     1.03; H_a    -0.51; H_b    -0.51; 
   1  Level shift: doubly occupied orbital energies shifted by -2.00D-01
 -----------------------------------------------------------------------------
   2  Screening settings (-IFTHRS, JTDIIS, DIFDEN, times)   -9    2    T  5.97D+01  5.98D+01
@  2    -76.0560981590        4.20812D-01   -1.78D-01    2
      Virial theorem: -V/T =      2.003272
@    MULPOP   O_a    -0.86; H_a     0.43; H_b     0.43; 
   2  Level shift: doubly occupied orbital energies shifted by -5.00D-02
 -----------------------------------------------------------------------------
   3  Screening settings (-IFTHRS, JTDIIS, DIFDEN, times)   -9    3    T  6.03D+01  6.04D+01
@  3    -76.0659385106        1.11492D-01   -9.84D-03    3
      Virial theorem: -V/T =      2.000013
@    MULPOP   O_a    -0.95; H_a     0.48; H_b     0.48; 
   3  Level shift: doubly occupied orbital energies shifted by -2.50D-02
 -----------------------------------------------------------------------------
   4  Screening settings (-IFTHRS, JTDIIS, DIFDEN, times)  -13    4    F  6.07D+01  6.08D+01
@  4    -76.0671080554        5.14920D-02   -1.17D-03    4
      Virial theorem: -V/T =      2.001730
@    MULPOP   O_a    -0.94; H_a     0.47; H_b     0.47; 
   4  Level shift: doubly occupied orbital energies shifted by -1.25D-02
 -----------------------------------------------------------------------------
   5  Screening settings (-IFTHRS, JTDIIS, DIFDEN, times)  -13    5    T  6.06D+01  6.07D+01
@  5    -76.0672554567        1.19022D-02   -1.47D-04    5
      Virial theorem: -V/T =      2.000789
@    MULPOP   O_a    -0.96; H_a     0.48; H_b     0.48; 
 -----------------------------------------------------------------------------
   6  Screening settings (-IFTHRS, JTDIIS, DIFDEN, times)  -13    6    T  5.67D+01  5.68D+01
@  6    -76.0672788227        2.81017D-03   -2.34D-05    6
      Virial theorem: -V/T =      2.000907
@    MULPOP   O_a    -0.96; H_a     0.48; H_b     0.48; 
 -----------------------------------------------------------------------------
   7  Screening settings (-IFTHRS, JTDIIS, DIFDEN, times)  -13    7    T  5.67D+01  5.68D+01
@  7    -76.0672803525        4.86663D-04   -1.53D-06    7
      Virial theorem: -V/T =      2.000925
@    MULPOP   O_a    -0.96; H_a     0.48; H_b     0.48; 
 -----------------------------------------------------------------------------
   8  Screening settings (-IFTHRS, JTDIIS, DIFDEN, times)  -13    8    T  5.74D+01  5.75D+01
@  8    -76.0672803904        6.65809D-05   -3.79D-08    8
      Virial theorem: -V/T =      2.000928
@    MULPOP   O_a    -0.96; H_a     0.48; H_b     0.48; 
 -----------------------------------------------------------------------------
   9  Screening settings (-IFTHRS, JTDIIS, DIFDEN, times)  -13    9    T  5.87D+01  5.88D+01
@  9    -76.0672803911        1.11763D-05   -6.52D-10    8
      Virial theorem: -V/T =      2.000928
@    MULPOP   O_a    -0.96; H_a     0.48; H_b     0.48; 
 -----------------------------------------------------------------------------
  10  Screening settings (-IFTHRS, JTDIIS, DIFDEN, times)  -13   10    T  5.98D+01  5.98D+01
@ 10    -76.0672803911        2.43891D-06   -1.59D-11    8

@ *** DIIS converged in  10 iterations !
@     Converged SCF energy, gradient:    -76.067280391093    2.44D-06
    - total time used in SIRFCK :              0.00 seconds


 *** SCF orbital energy analysis ***

 Only the 20 lowest virtual orbital energies printed in each symmetry.

 Number of electrons :   10
 Orbital occupations :    5

 Sym       Hartree-Fock orbital energies

1 A     -20.56412983    -1.35239141    -0.71742545    -0.58494455    -0.51048516
          0.00585280     0.01090894     0.03180301     0.03201453     0.03303200
          0.03852608     0.05402242     0.05827095     0.05936635     0.06536735
          0.06647186     0.08396159     0.09464268     0.09564630     0.13108681
          0.14592452     0.14674840     0.15700059     0.16090733     0.16326875

    E(LUMO) :     0.00585280 au (symmetry 1)
  - E(HOMO) :    -0.51048516 au (symmetry 1)
  ------------------------------------------
    gap     :     0.51633796 au

 --- Writing SIRIFC interface file

 CPU and wall time for SCF :     593.127     593.936


                       .-----------------------------------.
                       | --- Final results from SIRIUS --- |
                       `-----------------------------------'


@    Spin multiplicity:           1
@    Spatial symmetry:            1 ( irrep  A   in C1  )
@    Total charge of molecule:    0

@    Final HF energy:             -76.067280391093                 
@    Nuclear repulsion:             9.189533777587
@    Electronic energy:           -85.256814168680

@    Final gradient norm:           0.000002438910

 
     Date and time (Linux)  : Thu Sep  7 18:25:52 2023
     Host name              : sn-mem                                  

File label for MO orbitals:   7Sep23   FOCKDIIS

 (Only coefficients > 0.0100 are printed.)

 Molecular orbitals for symmetry species 1  (A  )
 ------------------------------------------------

    Orbital         1        2        3        4        5        6        7
   1 O_a :1s    -1.0006   0.0045  -0.0000  -0.0031  -0.0000  -0.0000  -0.0000
   2 O_a :1s    -0.0030  -0.8798   0.0000  -0.3068  -0.0000  -0.0365  -0.0000
   4 O_a :1s     0.0027   0.0182   0.0000  -0.0030  -0.0000   0.0067  -0.0000
   5 O_a :1s    -0.0023   0.0239  -0.0000  -0.0429  -0.0000  -0.1083   0.0000
   6 O_a :1s    -0.0055  -0.0611  -0.0000  -0.1032  -0.0000  -0.5132  -0.0000
   7 O_a :1s    -0.0017  -0.0512  -0.0000   0.0527  -0.0000  -1.8250  -0.0000
   8 O_a :1s     0.0005   0.0007   0.0000  -0.0172  -0.0000   7.3626   0.0000
   9 O_a :2px   -0.0000  -0.0000   0.0000  -0.0000   0.9225  -0.0000  -0.0000
  10 O_a :2py    0.0000  -0.0000  -0.7374  -0.0000   0.0000   0.0000  -0.0154
  11 O_a :2pz    0.0107   0.1144  -0.0000  -0.8126  -0.0000   0.0330  -0.0000
  17 O_a :2pz   -0.0029   0.0059   0.0000   0.0054   0.0000   0.0162   0.0000
  19 O_a :2py   -0.0000  -0.0000  -0.0253   0.0000  -0.0000   0.0000  -0.0797
  20 O_a :2pz   -0.0008   0.0203   0.0000   0.0074   0.0000   0.0405   0.0000
  21 O_a :2px    0.0000   0.0000  -0.0000   0.0000   0.0434   0.0000   0.0000
  22 O_a :2py    0.0000  -0.0000  -0.0044   0.0000  -0.0000   0.0000  -0.4291
  23 O_a :2pz   -0.0001   0.0240  -0.0000  -0.0033   0.0000  -0.1071   0.0000
  24 O_a :2px   -0.0000  -0.0000   0.0000  -0.0000   0.0189  -0.0000  -0.0000
  25 O_a :2py    0.0000   0.0000   0.0101  -0.0000  -0.0000  -0.0000  -1.5482
  26 O_a :2pz    0.0001   0.0079  -0.0000  -0.0056   0.0000  -0.5195   0.0000
  28 O_a :2py   -0.0000   0.0000  -0.0017   0.0000  -0.0000  -0.0000  -3.2417
  29 O_a :2pz   -0.0000   0.0002  -0.0000   0.0010   0.0000  -0.6338   0.0000
  41 O_a :3d1-   0.0000  -0.0000   0.0299  -0.0000  -0.0000   0.0000   0.0049
  42 O_a :3d0   -0.0003  -0.0029  -0.0000   0.0122  -0.0000  -0.0003  -0.0000
  43 O_a :3d1+  -0.0000  -0.0000   0.0000  -0.0000  -0.0105  -0.0000  -0.0000
  46 O_a :3d1-   0.0000   0.0000   0.0441  -0.0000  -0.0000  -0.0000  -0.0167
  47 O_a :3d0   -0.0001  -0.0035  -0.0000   0.0093  -0.0000   0.0237   0.0000
  48 O_a :3d1+  -0.0000  -0.0000   0.0000  -0.0000  -0.0108  -0.0000  -0.0000
  49 O_a :3d2+   0.0012   0.0164  -0.0000  -0.0084   0.0000  -0.0018   0.0000
  52 O_a :3d0    0.0000  -0.0014   0.0000   0.0032  -0.0000   0.0561  -0.0000
  53 O_a :3d1+   0.0000   0.0000  -0.0000   0.0000  -0.0108   0.0000   0.0000
  54 O_a :3d2+   0.0005   0.0111  -0.0000   0.0028   0.0000  -0.0884   0.0000
  56 O_a :3d1-  -0.0000  -0.0000  -0.0048   0.0000   0.0000   0.0000   0.1329
  57 O_a :3d0   -0.0000  -0.0005   0.0000   0.0004  -0.0000   0.0497  -0.0000
  59 O_a :3d2+   0.0001   0.0014   0.0000   0.0019   0.0000  -0.0777  -0.0000
  76 O_a :4f1-   0.0000   0.0000  -0.0039   0.0000   0.0000  -0.0000   0.0165
  81 O_a :4f3-   0.0000  -0.0000  -0.0008  -0.0000   0.0000  -0.0000   0.0642
  83 O_a :4f1-   0.0000  -0.0000  -0.0067  -0.0000  -0.0000  -0.0000   0.0819
  84 O_a :4f0   -0.0001  -0.0024   0.0000  -0.0004  -0.0000   0.0171  -0.0000
  86 O_a :4f2+  -0.0003  -0.0057   0.0000  -0.0003  -0.0000   0.0494  -0.0000
  88 O_a :4f3-   0.0000  -0.0000  -0.0050   0.0000   0.0000   0.0000   0.1264
  90 O_a :4f1-   0.0000   0.0000  -0.0033   0.0000  -0.0000  -0.0000   0.0846
  91 O_a :4f0   -0.0000  -0.0005   0.0000  -0.0010  -0.0000   0.0172   0.0000
  93 O_a :4f2+  -0.0001  -0.0015  -0.0000  -0.0017  -0.0000   0.0452   0.0000
 123 O_a :5g3-  -0.0000   0.0000   0.0011   0.0000  -0.0000  -0.0000  -0.0175
 125 O_a :5g1-  -0.0000   0.0000   0.0021   0.0000   0.0000   0.0000  -0.0274
 126 O_a :5g0   -0.0000   0.0003  -0.0000   0.0005   0.0000  -0.0116  -0.0000
 128 O_a :5g2+   0.0000   0.0005  -0.0000   0.0006   0.0000  -0.0179   0.0000
 164 H_a :1s    -0.0012  -0.4029  -0.6218   0.3711   0.0000   0.0062  -0.0044
 165 H_a :1s     0.0003   0.0101   0.0086  -0.0047  -0.0000  -0.0074  -0.0019
 166 H_a :1s     0.0033   0.0890   0.0982  -0.0308   0.0000  -0.0240   0.0348
 167 H_a :1s     0.0030   0.1987   0.2088  -0.0747   0.0000   0.0810   0.2280
 168 H_a :1s     0.0009   0.0902   0.2595  -0.0964  -0.0000   0.5526  -1.0366
 169 H_a :1s    -0.0002  -0.0006   0.0386   0.0065   0.0000  -3.6729  12.2602
 170 H_a :1s     0.0000  -0.0001   0.0005  -0.0000  -0.0000   0.7940   7.4906
 177 H_a :2px   -0.0000  -0.0000   0.0000  -0.0000   0.0163  -0.0000  -0.0000
 178 H_a :2py   -0.0008   0.0058   0.0021  -0.0138  -0.0000  -0.0047   0.0044
 179 H_a :2pz    0.0005  -0.0042  -0.0064  -0.0037   0.0000   0.0120   0.0277
 180 H_a :2px   -0.0000  -0.0000   0.0000  -0.0000   0.0200  -0.0000  -0.0000
 181 H_a :2py   -0.0006   0.0023  -0.0152  -0.0120  -0.0000  -0.0910   0.1157
 182 H_a :2pz    0.0005  -0.0007  -0.0047  -0.0103   0.0000   0.1198   0.1700
 184 H_a :2py   -0.0001   0.0040  -0.0659   0.0082   0.0000  -0.3207   1.0884
 185 H_a :2pz    0.0000  -0.0023   0.0069  -0.0140  -0.0000   0.4065   0.4739
 187 H_a :2py    0.0000   0.0009  -0.0081  -0.0012   0.0000   0.3472  -0.9826
 188 H_a :2pz   -0.0000  -0.0008   0.0014   0.0007  -0.0000  -0.2570   1.2771
 200 H_a :3d1-   0.0000   0.0023   0.0021  -0.0017  -0.0000  -0.0126  -0.0108
 201 H_a :3d0   -0.0000  -0.0003  -0.0008  -0.0023  -0.0000   0.0056   0.0186
 205 H_a :3d1-   0.0000   0.0025  -0.0004  -0.0001   0.0000  -0.0162   0.0099
 206 H_a :3d0   -0.0000   0.0002   0.0008  -0.0014  -0.0000   0.0115   0.0392
 208 H_a :3d2+  -0.0001   0.0016   0.0008  -0.0024  -0.0000  -0.0082  -0.0337
 210 H_a :3d1-   0.0000   0.0005   0.0001   0.0009   0.0000  -0.0319  -0.1141
 211 H_a :3d0   -0.0000   0.0002   0.0003  -0.0011  -0.0000   0.0251   0.0766
 213 H_a :3d2+  -0.0000   0.0007  -0.0031  -0.0012  -0.0000  -0.0202   0.0272
 228 H_a :4f3-   0.0000  -0.0003  -0.0012   0.0006   0.0000  -0.0057   0.0134
 235 H_a :4f3-   0.0000  -0.0000  -0.0013   0.0008   0.0000  -0.0069   0.0352
 237 H_a :4f1-  -0.0000  -0.0001  -0.0014  -0.0000  -0.0000   0.0036   0.0224
 238 H_a :4f0    0.0000  -0.0000   0.0015  -0.0003  -0.0000   0.0147  -0.0266
 240 H_a :4f2+  -0.0000  -0.0001   0.0024  -0.0007  -0.0000   0.0218  -0.0491
 269 H_b :1s    -0.0012  -0.4029   0.6218   0.3711   0.0000   0.0062   0.0044
 270 H_b :1s     0.0003   0.0101  -0.0086  -0.0047  -0.0000  -0.0074   0.0019
 271 H_b :1s     0.0033   0.0890  -0.0982  -0.0308   0.0000  -0.0240  -0.0348
 272 H_b :1s     0.0030   0.1987  -0.2088  -0.0747   0.0000   0.0810  -0.2280
 273 H_b :1s     0.0009   0.0902  -0.2595  -0.0964  -0.0000   0.5526   1.0366
 274 H_b :1s    -0.0002  -0.0006  -0.0386   0.0065   0.0000  -3.6729 -12.2602
 275 H_b :1s     0.0000  -0.0001  -0.0005  -0.0000  -0.0000   0.7940  -7.4906
 282 H_b :2px   -0.0000  -0.0000   0.0000  -0.0000   0.0163  -0.0000  -0.0000
 283 H_b :2py    0.0008  -0.0058   0.0021   0.0138   0.0000   0.0047   0.0044
 284 H_b :2pz    0.0005  -0.0042   0.0064  -0.0037   0.0000   0.0120  -0.0277
 285 H_b :2px   -0.0000  -0.0000   0.0000  -0.0000   0.0200  -0.0000  -0.0000
 286 H_b :2py    0.0006  -0.0023  -0.0152   0.0120   0.0000   0.0910   0.1157
 287 H_b :2pz    0.0005  -0.0007   0.0047  -0.0103   0.0000   0.1198  -0.1700
 289 H_b :2py    0.0001  -0.0040  -0.0659  -0.0082  -0.0000   0.3207   1.0884
 290 H_b :2pz    0.0000  -0.0023  -0.0069  -0.0140  -0.0000   0.4065  -0.4739
 292 H_b :2py   -0.0000  -0.0009  -0.0081   0.0012  -0.0000  -0.3472  -0.9826
 293 H_b :2pz   -0.0000  -0.0008  -0.0014   0.0007  -0.0000  -0.2570  -1.2771
 305 H_b :3d1-  -0.0000  -0.0023   0.0021   0.0017   0.0000   0.0126  -0.0108
 306 H_b :3d0   -0.0000  -0.0003   0.0008  -0.0023  -0.0000   0.0056  -0.0186
 310 H_b :3d1-  -0.0000  -0.0025  -0.0004   0.0001  -0.0000   0.0162   0.0099
 311 H_b :3d0   -0.0000   0.0002  -0.0008  -0.0014  -0.0000   0.0115  -0.0392
 313 H_b :3d2+  -0.0001   0.0016  -0.0008  -0.0024  -0.0000  -0.0082   0.0337
 315 H_b :3d1-  -0.0000  -0.0005   0.0001  -0.0009  -0.0000   0.0319  -0.1141
 316 H_b :3d0   -0.0000   0.0002  -0.0003  -0.0011  -0.0000   0.0251  -0.0766
 318 H_b :3d2+  -0.0000   0.0007   0.0031  -0.0012  -0.0000  -0.0202  -0.0272
 333 H_b :4f3-  -0.0000   0.0003  -0.0012  -0.0006  -0.0000   0.0057   0.0134
 340 H_b :4f3-  -0.0000   0.0000  -0.0013  -0.0008  -0.0000   0.0069   0.0352
 342 H_b :4f1-   0.0000   0.0001  -0.0014   0.0000   0.0000  -0.0036   0.0224
 343 H_b :4f0    0.0000  -0.0000  -0.0015  -0.0003  -0.0000   0.0147   0.0266
 345 H_b :4f2+  -0.0000  -0.0001  -0.0024  -0.0007  -0.0000   0.0218   0.0491

    Orbital         8        9       10       11       12       13       14
   2 O_a :1s    -0.0139   0.0000   0.0862   0.0000   0.0000  -0.0011   0.0000
   4 O_a :1s     0.0323   0.0000   0.0110   0.0000   0.0000   0.0125   0.0000
   5 O_a :1s    -0.0932   0.0000  -0.3378  -0.0000   0.0000   0.2312  -0.0000
   6 O_a :1s    -1.0318   0.0000  -1.1095   0.0000  -0.0000  -0.7785   0.0000
   7 O_a :1s    -5.9025   0.0000  -4.7373   0.0000  -0.0000  -4.9900   0.0000
   8 O_a :1s    -0.3545   0.0000  22.1667  -0.0000   0.0000   7.2793  -0.0000
   9 O_a :2px   -0.0000  -0.0394   0.0000   0.0000   0.0000   0.0000  -0.0000
  10 O_a :2py   -0.0000  -0.0000  -0.0000   0.0458   0.0267   0.0000   0.0000
  11 O_a :2pz    0.0568   0.0000  -0.0537   0.0000  -0.0000  -0.0174  -0.0000
  15 O_a :2px    0.0000   0.0105  -0.0000  -0.0000  -0.0000  -0.0000   0.0000
  16 O_a :2py    0.0000   0.0000   0.0000  -0.0241  -0.0826  -0.0000  -0.0000
  17 O_a :2pz    0.0168  -0.0000   0.0497  -0.0000   0.0000  -0.0230   0.0000
  18 O_a :2px    0.0000  -0.0517  -0.0000  -0.0000  -0.0000  -0.0000  -0.0000
  19 O_a :2py   -0.0000   0.0000  -0.0000  -0.1949  -0.3021   0.0000  -0.0000
  20 O_a :2pz    0.2677  -0.0000   0.0262   0.0000   0.0000  -0.4211   0.0000
  21 O_a :2px    0.0000  -0.0328  -0.0000  -0.0000  -0.0000  -0.0000   0.0000
  22 O_a :2py    0.0000   0.0000   0.0000  -1.1129   1.9630   0.0000   0.0000
  23 O_a :2pz    0.3539  -0.0000  -0.6930  -0.0000   0.0000  -0.6993   0.0000
  24 O_a :2px   -0.0000   0.5277   0.0000   0.0000   0.0000   0.0000   0.0000
  25 O_a :2py   -0.0000   0.0000  -0.0000  -4.1921   2.7662  -0.0000   0.0000
  26 O_a :2pz   -0.0016  -0.0000  -2.1464  -0.0000   0.0000  -1.8661   0.0000
  27 O_a :2px   -0.0000   2.6971   0.0000   0.0000   0.0000   0.0000  -0.0000
  28 O_a :2py   -0.0000   0.0000  -0.0000  -9.4344   4.7873  -0.0000   0.0000
  29 O_a :2pz   -2.1814  -0.0000  -2.1479  -0.0000   0.0000  -1.5092   0.0000
  40 O_a :3d2-  -0.0000  -0.0000   0.0000   0.0000   0.0000   0.0000  -0.0325
  41 O_a :3d1-   0.0000   0.0000   0.0000   0.0112   0.0257  -0.0000   0.0000
  42 O_a :3d0   -0.0045   0.0000   0.0029   0.0000   0.0000   0.0311   0.0000
  44 O_a :3d2+   0.0172  -0.0000   0.0177   0.0000  -0.0000   0.0127   0.0000
  45 O_a :3d2-  -0.0000  -0.0000   0.0000   0.0000   0.0000   0.0000  -0.3701
  46 O_a :3d1-   0.0000   0.0000   0.0000  -0.0481  -0.0646  -0.0000   0.0000
  47 O_a :3d0   -0.0463   0.0000   0.0810  -0.0000  -0.0000   0.4305   0.0000
  48 O_a :3d1+  -0.0000   0.0660   0.0000   0.0000   0.0000   0.0000   0.0000
  49 O_a :3d2+   0.1411  -0.0000  -0.0333  -0.0000   0.0000   0.2762  -0.0000
  50 O_a :3d2-  -0.0000  -0.0000   0.0000  -0.0000  -0.0000   0.0000  -0.7221
  51 O_a :3d1-  -0.0000  -0.0000  -0.0000   0.0055  -1.0482  -0.0000   0.0000
  52 O_a :3d0    0.0697   0.0000   0.1874   0.0000  -0.0000   0.6298  -0.0000
  53 O_a :3d1+   0.0000   0.2125  -0.0000  -0.0000  -0.0000  -0.0000  -0.0000
  54 O_a :3d2+   0.2488  -0.0000  -0.3440   0.0000  -0.0000   0.5052  -0.0000
  55 O_a :3d2-  -0.0000  -0.0000  -0.0000  -0.0000  -0.0000   0.0000  -1.0324
  56 O_a :3d1-   0.0000  -0.0000   0.0000   0.3280  -0.9304   0.0000   0.0000
  57 O_a :3d0    0.3706   0.0000   0.1802   0.0000  -0.0000   0.6937  -0.0000
  58 O_a :3d1+   0.0000  -0.1444  -0.0000  -0.0000  -0.0000  -0.0000  -0.0000
  59 O_a :3d2+   0.2912  -0.0000  -0.3144   0.0000  -0.0000   0.6324   0.0000
  74 O_a :4f3-   0.0000   0.0000   0.0000   0.0247   0.0186   0.0000   0.0000
  75 O_a :4f2-   0.0000   0.0000  -0.0000  -0.0000  -0.0000  -0.0000   0.0976
  76 O_a :4f1-  -0.0000  -0.0000  -0.0000   0.0426   0.0622  -0.0000  -0.0000
  77 O_a :4f0   -0.0059   0.0000  -0.0025  -0.0000   0.0000  -0.0599   0.0000
  79 O_a :4f2+  -0.0388   0.0000   0.0204  -0.0000  -0.0000  -0.0166   0.0000
  80 O_a :4f3+  -0.0000   0.0127   0.0000   0.0000   0.0000   0.0000   0.0000
  81 O_a :4f3-  -0.0000  -0.0000  -0.0000   0.1722  -0.0812  -0.0000  -0.0000
  82 O_a :4f2-   0.0000  -0.0000  -0.0000  -0.0000  -0.0000  -0.0000   0.2498
  83 O_a :4f1-  -0.0000   0.0000  -0.0000   0.2263   0.1086   0.0000  -0.0000
  84 O_a :4f0   -0.0228   0.0000   0.0509  -0.0000  -0.0000  -0.1168   0.0000
  85 O_a :4f1+   0.0000  -0.0354  -0.0000  -0.0000  -0.0000  -0.0000   0.0000
  86 O_a :4f2+  -0.0777   0.0000   0.1518  -0.0000  -0.0000  -0.0210   0.0000
  87 O_a :4f3+  -0.0000   0.0401   0.0000   0.0000   0.0000   0.0000  -0.0000
  88 O_a :4f3-   0.0000  -0.0000   0.0000   0.3514  -0.1738   0.0000  -0.0000
  89 O_a :4f2-  -0.0000  -0.0000   0.0000   0.0000   0.0000   0.0000   0.2147
  90 O_a :4f1-   0.0000   0.0000   0.0000   0.2416   0.1495   0.0000  -0.0000
  91 O_a :4f0   -0.0413   0.0000   0.0584  -0.0000   0.0000  -0.1352   0.0000
  92 O_a :4f1+  -0.0000  -0.0147   0.0000   0.0000   0.0000   0.0000   0.0000
  93 O_a :4f2+  -0.0288   0.0000   0.1571  -0.0000   0.0000  -0.1131   0.0000
  94 O_a :4f3+  -0.0000  -0.0182   0.0000   0.0000   0.0000   0.0000  -0.0000
 113 O_a :5g4-   0.0000   0.0000  -0.0000  -0.0000  -0.0000  -0.0000   0.0163
 114 O_a :5g3-  -0.0000  -0.0000   0.0000  -0.0119  -0.0043   0.0000  -0.0000
 115 O_a :5g2-  -0.0000  -0.0000   0.0000   0.0000   0.0000   0.0000  -0.0277
 116 O_a :5g1-   0.0000  -0.0000   0.0000  -0.0236  -0.0440  -0.0000   0.0000
 119 O_a :5g2+   0.0086  -0.0000  -0.0152  -0.0000   0.0000  -0.0259  -0.0000
 120 O_a :5g3+   0.0000  -0.0107  -0.0000  -0.0000  -0.0000  -0.0000  -0.0000
 121 O_a :5g4+  -0.0101   0.0000   0.0040   0.0000   0.0000  -0.0147   0.0000
 123 O_a :5g3-   0.0000   0.0000   0.0000  -0.0468   0.0132  -0.0000   0.0000
 124 O_a :5g2-  -0.0000   0.0000   0.0000  -0.0000  -0.0000   0.0000  -0.0626
 125 O_a :5g1-   0.0000  -0.0000   0.0000  -0.0761  -0.0238  -0.0000   0.0000
 126 O_a :5g0    0.0089  -0.0000  -0.0315   0.0000  -0.0000   0.0046   0.0000
 128 O_a :5g2+   0.0113  -0.0000  -0.0500   0.0000   0.0000  -0.0175   0.0000
 129 O_a :5g3+   0.0000  -0.0193  -0.0000  -0.0000  -0.0000  -0.0000   0.0000
 130 O_a :5g4+  -0.0121   0.0000   0.0068  -0.0000   0.0000   0.0003  -0.0000
 157 O_a :6h1-  -0.0000   0.0000  -0.0000   0.0041   0.0148  -0.0000   0.0000
 164 H_a :1s    -0.0084  -0.0000  -0.0029   0.0109   0.0052   0.0029  -0.0000
 165 H_a :1s    -0.0023   0.0000  -0.0216  -0.0044  -0.0177   0.0073   0.0000
 166 H_a :1s     0.3210  -0.0000  -0.1248   0.0833   0.1025   0.0343   0.0000
 167 H_a :1s     0.1718  -0.0000  -0.1248   0.5978  -1.9244   1.0584  -0.0000
 168 H_a :1s     2.6964   0.0000   1.1870  -2.8391  -1.7570   2.9244   0.0000
 169 H_a :1s     0.6139  -0.0000 -11.1732  39.1414 -49.4364  -3.4712   0.0000
 170 H_a :1s    -0.2604   0.0000   0.9228   7.7111  -0.4236  -0.0404  -0.0000
 177 H_a :2px   -0.0000   0.0320   0.0000   0.0000   0.0000   0.0000   0.1190
 178 H_a :2py   -0.0505   0.0000  -0.0096   0.0106   0.0204   0.0794   0.0000
 179 H_a :2pz    0.0364  -0.0000   0.0322   0.0734   0.0935   0.0990  -0.0000
 180 H_a :2px   -0.0000   0.1222   0.0000   0.0000   0.0000   0.0000   0.7638
 181 H_a :2py   -0.0204   0.0000  -0.2519   0.3031   0.0645   0.3205  -0.0000
 182 H_a :2pz    0.0597  -0.0000   0.3493   0.4572   0.3448   0.5377  -0.0000
 183 H_a :2px   -0.0000  -0.0654   0.0000   0.0000   0.0000   0.0000   3.0964
 184 H_a :2py   -0.4094  -0.0000  -1.1391   2.9465  -0.9387   1.7757  -0.0000
 185 H_a :2pz    0.7620   0.0000   1.3895   1.3226   1.9485   1.4428  -0.0000
 186 H_a :2px    0.0000  -1.1275  -0.0000  -0.0000  -0.0000  -0.0000   4.4146
 187 H_a :2py   -0.2225  -0.0000   0.6080  -3.6776   7.6816   3.7431  -0.0000
 188 H_a :2pz    0.8032   0.0000  -0.3050   3.9204   1.6580   0.7046  -0.0000
 194 H_a :3d2-   0.0000  -0.0040  -0.0000  -0.0000  -0.0000  -0.0000  -0.0101
 196 H_a :3d0    0.0012   0.0000   0.0015   0.0055   0.0100   0.0079   0.0000
 199 H_a :3d2-   0.0000  -0.0150  -0.0000  -0.0000  -0.0000  -0.0000  -0.1157
 200 H_a :3d1-   0.0026   0.0000  -0.0422  -0.0271  -0.0854  -0.0173   0.0000
 201 H_a :3d0    0.0036   0.0000   0.0179   0.0469   0.0406   0.1074   0.0000
 202 H_a :3d1+  -0.0000   0.0007   0.0000   0.0000   0.0000   0.0000   0.0586
 203 H_a :3d2+  -0.0179   0.0000  -0.0149  -0.0018   0.0401   0.0806   0.0000
 204 H_a :3d2-   0.0000   0.0154  -0.0000  -0.0000  -0.0000  -0.0000  -0.3525
 205 H_a :3d1-  -0.0068  -0.0000  -0.0846   0.0366  -0.3896  -0.0382   0.0000
 206 H_a :3d0   -0.0179   0.0000   0.0373   0.0935   0.0873   0.2591  -0.0000
 207 H_a :3d1+  -0.0000  -0.0602   0.0000   0.0000   0.0000   0.0000   0.0605
 208 H_a :3d2+  -0.0886   0.0000  -0.0424  -0.0946   0.0701   0.3161  -0.0000
 209 H_a :3d2-   0.0000   0.1119  -0.0000  -0.0000  -0.0000  -0.0000  -0.8245
 210 H_a :3d1-  -0.0169  -0.0000  -0.1718  -0.3091  -0.6657  -0.0621   0.0000
 211 H_a :3d0    0.0125   0.0000   0.0763   0.1922   0.2605   0.5860  -0.0000
 212 H_a :3d1+  -0.0000  -0.0909   0.0000   0.0000   0.0000   0.0000   0.2585
 213 H_a :3d2+  -0.1522   0.0000  -0.1034   0.0677   0.3032   0.7157  -0.0000
 222 H_a :4f2-   0.0000  -0.0018  -0.0000  -0.0000  -0.0000  -0.0000  -0.0132
 223 H_a :4f1-  -0.0008  -0.0000  -0.0048  -0.0060  -0.0142  -0.0097  -0.0000
 227 H_a :4f3+   0.0000  -0.0020  -0.0000  -0.0000  -0.0000  -0.0000  -0.0127
 228 H_a :4f3-   0.0251  -0.0000  -0.0135   0.0368  -0.0291  -0.0392  -0.0000
 229 H_a :4f2-   0.0000   0.0179  -0.0000  -0.0000  -0.0000  -0.0000  -0.0174
 230 H_a :4f1-   0.0112  -0.0000   0.0089   0.0088  -0.0438  -0.0276   0.0000
 231 H_a :4f0    0.0067   0.0000   0.0046  -0.0085  -0.0315   0.0211   0.0000
 232 H_a :4f1+  -0.0000  -0.0138   0.0000   0.0000   0.0000   0.0000  -0.0188
 233 H_a :4f2+  -0.0050  -0.0000   0.0090  -0.0108  -0.0209   0.0227   0.0000
 234 H_a :4f3+   0.0000   0.0084  -0.0000  -0.0000  -0.0000  -0.0000  -0.0198
 235 H_a :4f3-   0.0409  -0.0000  -0.0168   0.0970  -0.1469  -0.0973   0.0000
 236 H_a :4f2-   0.0000   0.0184  -0.0000  -0.0000  -0.0000  -0.0000   0.0019
 237 H_a :4f1-   0.0236   0.0000   0.0090   0.0729  -0.1147  -0.1117   0.0000
 238 H_a :4f0    0.0185   0.0000   0.0392  -0.0726  -0.0518   0.0241   0.0000
 239 H_a :4f1+  -0.0000  -0.0125   0.0000   0.0000   0.0000   0.0000  -0.0328
 240 H_a :4f2+   0.0191   0.0000   0.0554  -0.1344  -0.0171   0.0278  -0.0000
 241 H_a :4f3+   0.0000   0.0396  -0.0000  -0.0000  -0.0000  -0.0000  -0.0786
 261 H_a :5g3-  -0.0032  -0.0000  -0.0121   0.0220  -0.0075  -0.0051  -0.0000
 263 H_a :5g1-  -0.0056  -0.0000  -0.0054   0.0252  -0.0037  -0.0134  -0.0000
 264 H_a :5g0    0.0049   0.0000   0.0033  -0.0077  -0.0145  -0.0051   0.0000
 266 H_a :5g2+   0.0048   0.0000   0.0031  -0.0101  -0.0079  -0.0104   0.0000
 268 H_a :5g4+   0.0106  -0.0000  -0.0070   0.0082  -0.0280  -0.0105  -0.0000
 269 H_b :1s    -0.0084  -0.0000  -0.0029  -0.0109  -0.0052   0.0029   0.0000
 270 H_b :1s    -0.0023   0.0000  -0.0216   0.0044   0.0177   0.0073   0.0000
 271 H_b :1s     0.3210  -0.0000  -0.1248  -0.0833  -0.1025   0.0343  -0.0000
 272 H_b :1s     0.1718  -0.0000  -0.1248  -0.5978   1.9244   1.0584  -0.0000
 273 H_b :1s     2.6964   0.0000   1.1870   2.8391   1.7570   2.9244   0.0000
 274 H_b :1s     0.6139  -0.0000 -11.1732 -39.1414  49.4364  -3.4712   0.0000
 275 H_b :1s    -0.2604   0.0000   0.9228  -7.7111   0.4236  -0.0404   0.0000
 282 H_b :2px   -0.0000   0.0320   0.0000   0.0000   0.0000   0.0000  -0.1190
 283 H_b :2py    0.0505  -0.0000   0.0096   0.0106   0.0204  -0.0794  -0.0000
 284 H_b :2pz    0.0364  -0.0000   0.0322  -0.0734  -0.0935   0.0990   0.0000
 285 H_b :2px   -0.0000   0.1222   0.0000   0.0000   0.0000   0.0000  -0.7638
 286 H_b :2py    0.0204  -0.0000   0.2519   0.3031   0.0645  -0.3205   0.0000
 287 H_b :2pz    0.0597  -0.0000   0.3493  -0.4572  -0.3448   0.5377   0.0000
 288 H_b :2px   -0.0000  -0.0654   0.0000   0.0000   0.0000   0.0000  -3.0964
 289 H_b :2py    0.4094   0.0000   1.1391   2.9465  -0.9387  -1.7757   0.0000
 290 H_b :2pz    0.7620   0.0000   1.3895  -1.3226  -1.9485   1.4428  -0.0000
 291 H_b :2px    0.0000  -1.1275  -0.0000  -0.0000  -0.0000  -0.0000  -4.4146
 292 H_b :2py    0.2225   0.0000  -0.6080  -3.6776   7.6816  -3.7431   0.0000
 293 H_b :2pz    0.8032   0.0000  -0.3050  -3.9204  -1.6580   0.7046   0.0000
 299 H_b :3d2-  -0.0000   0.0040   0.0000   0.0000   0.0000   0.0000  -0.0101
 301 H_b :3d0    0.0012   0.0000   0.0015  -0.0055  -0.0100   0.0079   0.0000
 304 H_b :3d2-  -0.0000   0.0150   0.0000   0.0000   0.0000   0.0000  -0.1157
 305 H_b :3d1-  -0.0026  -0.0000   0.0422  -0.0271  -0.0854   0.0173   0.0000
 306 H_b :3d0    0.0036   0.0000   0.0179  -0.0469  -0.0406   0.1074   0.0000
 307 H_b :3d1+  -0.0000   0.0007   0.0000   0.0000   0.0000   0.0000  -0.0586
 308 H_b :3d2+  -0.0179   0.0000  -0.0149   0.0018  -0.0401   0.0806   0.0000
 309 H_b :3d2-  -0.0000  -0.0154   0.0000   0.0000   0.0000   0.0000  -0.3525
 310 H_b :3d1-   0.0068   0.0000   0.0846   0.0366  -0.3896   0.0382   0.0000
 311 H_b :3d0   -0.0179   0.0000   0.0373  -0.0935  -0.0873   0.2591   0.0000
 312 H_b :3d1+  -0.0000  -0.0602   0.0000   0.0000   0.0000   0.0000  -0.0605
 313 H_b :3d2+  -0.0886   0.0000  -0.0424   0.0946  -0.0701   0.3161  -0.0000
 314 H_b :3d2-  -0.0000  -0.1119   0.0000   0.0000   0.0000   0.0000  -0.8245
 315 H_b :3d1-   0.0169   0.0000   0.1718  -0.3091  -0.6657   0.0621   0.0000
 316 H_b :3d0    0.0125   0.0000   0.0763  -0.1922  -0.2605   0.5860  -0.0000
 317 H_b :3d1+  -0.0000  -0.0909   0.0000   0.0000   0.0000   0.0000  -0.2585
 318 H_b :3d2+  -0.1522   0.0000  -0.1034  -0.0677  -0.3032   0.7157   0.0000
 327 H_b :4f2-  -0.0000   0.0018   0.0000   0.0000   0.0000   0.0000  -0.0132
 328 H_b :4f1-   0.0008   0.0000   0.0048  -0.0060  -0.0142   0.0097   0.0000
 332 H_b :4f3+   0.0000  -0.0020  -0.0000  -0.0000  -0.0000  -0.0000   0.0127
 333 H_b :4f3-  -0.0251   0.0000   0.0135   0.0368  -0.0291   0.0392  -0.0000
 334 H_b :4f2-  -0.0000  -0.0179   0.0000   0.0000   0.0000   0.0000  -0.0174
 335 H_b :4f1-  -0.0112   0.0000  -0.0089   0.0088  -0.0438   0.0276   0.0000
 336 H_b :4f0    0.0067   0.0000   0.0046   0.0085   0.0315   0.0211   0.0000
 337 H_b :4f1+  -0.0000  -0.0138   0.0000   0.0000   0.0000   0.0000   0.0188
 338 H_b :4f2+  -0.0050   0.0000   0.0090   0.0108   0.0209   0.0227   0.0000
 339 H_b :4f3+   0.0000   0.0084  -0.0000  -0.0000  -0.0000  -0.0000   0.0198
 340 H_b :4f3-  -0.0409   0.0000   0.0168   0.0970  -0.1469   0.0973  -0.0000
 341 H_b :4f2-  -0.0000  -0.0184   0.0000   0.0000   0.0000   0.0000   0.0019
 342 H_b :4f1-  -0.0236  -0.0000  -0.0090   0.0729  -0.1147   0.1117   0.0000
 343 H_b :4f0    0.0185   0.0000   0.0392   0.0726   0.0518   0.0241  -0.0000
 344 H_b :4f1+  -0.0000  -0.0125   0.0000   0.0000   0.0000   0.0000   0.0328
 345 H_b :4f2+   0.0191   0.0000   0.0554   0.1344   0.0171   0.0278  -0.0000
 346 H_b :4f3+   0.0000   0.0396  -0.0000  -0.0000  -0.0000  -0.0000   0.0786
 366 H_b :5g3-   0.0032   0.0000   0.0121   0.0220  -0.0075   0.0051   0.0000
 368 H_b :5g1-   0.0056   0.0000   0.0054   0.0252  -0.0037   0.0134  -0.0000
 369 H_b :5g0    0.0049   0.0000   0.0033   0.0077   0.0145  -0.0051   0.0000
 371 H_b :5g2+   0.0048   0.0000   0.0031   0.0101   0.0079  -0.0104   0.0000
 373 H_b :5g4+   0.0106  -0.0000  -0.0070  -0.0082   0.0280  -0.0105  -0.0000

    Orbital        15
   3 O_a :1s     0.0112
   4 O_a :1s    -0.1205
   5 O_a :1s     0.0509
   6 O_a :1s     4.3889
   7 O_a :1s     7.7056
   8 O_a :1s   -24.7323
  11 O_a :2pz   -0.0390
  20 O_a :2pz   -1.0241
  23 O_a :2pz   -3.6223
  26 O_a :2pz   -5.2169
  29 O_a :2pz   -3.4030
  42 O_a :3d0    0.0220
  44 O_a :3d2+  -0.0241
  47 O_a :3d0    0.1354
  49 O_a :3d2+  -0.1685
  52 O_a :3d0    0.2714
  54 O_a :3d2+  -0.6055
  57 O_a :3d0    0.6322
  59 O_a :3d2+  -0.5615
  77 O_a :4f0    0.0124
  79 O_a :4f2+   0.0467
  84 O_a :4f0   -0.0474
  86 O_a :4f2+  -0.0442
  93 O_a :4f2+   0.1572
 126 O_a :5g0    0.0477
 128 O_a :5g2+   0.0554
 164 H_a :1s     0.0198
 166 H_a :1s    -0.4146
 167 H_a :1s    -3.8499
 168 H_a :1s    -3.9712
 169 H_a :1s    11.8177
 170 H_a :1s    -0.1319
 178 H_a :2py    0.1618
 179 H_a :2pz   -0.0795
 181 H_a :2py    0.6808
 182 H_a :2pz   -0.3083
 184 H_a :2py   -0.4298
 185 H_a :2pz    1.1480
 187 H_a :2py   -3.6599
 188 H_a :2pz    5.1013
 195 H_a :3d1-   0.0121
 198 H_a :3d2+   0.0117
 201 H_a :3d0    0.0376
 203 H_a :3d2+   0.0343
 205 H_a :3d1-  -0.3029
 206 H_a :3d0    0.0681
 208 H_a :3d2+  -0.1175
 210 H_a :3d1-  -0.6187
 211 H_a :3d0    0.1101
 213 H_a :3d2+  -0.2946
 228 H_a :4f3-   0.0421
 230 H_a :4f1-  -0.0433
 231 H_a :4f0   -0.0122
 233 H_a :4f2+  -0.0575
 235 H_a :4f3-   0.0355
 237 H_a :4f1-  -0.0321
 238 H_a :4f0   -0.0339
 240 H_a :4f2+  -0.0746
 268 H_a :5g4+   0.0108
 269 H_b :1s     0.0198
 271 H_b :1s    -0.4146
 272 H_b :1s    -3.8499
 273 H_b :1s    -3.9712
 274 H_b :1s    11.8177
 275 H_b :1s    -0.1319
 283 H_b :2py   -0.1618
 284 H_b :2pz   -0.0795
 286 H_b :2py   -0.6808
 287 H_b :2pz   -0.3083
 289 H_b :2py    0.4298
 290 H_b :2pz    1.1480
 292 H_b :2py    3.6599
 293 H_b :2pz    5.1013
 300 H_b :3d1-  -0.0121
 303 H_b :3d2+   0.0117
 306 H_b :3d0    0.0376
 308 H_b :3d2+   0.0343
 310 H_b :3d1-   0.3029
 311 H_b :3d0    0.0681
 313 H_b :3d2+  -0.1175
 315 H_b :3d1-   0.6187
 316 H_b :3d0    0.1101
 318 H_b :3d2+  -0.2946
 333 H_b :4f3-  -0.0421
 335 H_b :4f1-   0.0433
 336 H_b :4f0   -0.0122
 338 H_b :4f2+  -0.0575
 340 H_b :4f3-  -0.0355
 342 H_b :4f1-   0.0321
 343 H_b :4f0   -0.0339
 345 H_b :4f2+  -0.0746
 373 H_b :5g4+   0.0108

  Total CPU  time used in SIRIUS :  9 minutes 56 seconds
  Total wall time used in SIRIUS :  9 minutes 57 seconds

 
     Date and time (Linux)  : Thu Sep  7 18:25:52 2023
     Host name              : sn-mem                                  


                     .---------------------------------------.
                     | End of Wave Function Section (SIRIUS) |
                     `---------------------------------------'



                 .------------------------------------------------.
                 | Starting in Dynamic Property Section (RESPONS) |
                 `------------------------------------------------'


 ----------------------------------------------------------------------------------------
  RESPONSE  -  an MCSCF, MC-srDFT, DFT, SOPPA and SOPPA-srDFT response property program
 ----------------------------------------------------------------------------------------


 -------- OUTPUT FROM RESPONSE INPUT PROCESSING --------




 Quadratic Response calculation
 ------------------------------

 First hyperpolarizability calculation : HYPCAL= T

 Spin of operator A , ISPINA=    0
 Spin of operator B , ISPINB=    0
 Spin of operator C , ISPINC=    0

  5 B-frequencies  0.000000D+00  1.986669D-02  3.973338D-02  5.960006D-02  7.946675D-02
  5 C-frequencies  0.000000D+00  1.986669D-02  3.973338D-02  5.960006D-02  7.946675D-02


 Print level                                    : IPRHYP =   2
 Maximum number of iterations in lin.rsp. solver: MAXITL =  60
 Threshold for convergence of linear resp. eq.s : THCLR  = 1.000D-03
 Maximum iterations in optimal orbital algorithm: MAXITO =   5
 Direct one-index transformation                : DIROIT = T

    3 A OPERATORS OF SYMMETRY NO:    1 AND LABELS:

          XDIPLEN 
          YDIPLEN 
          ZDIPLEN 

    3 B OPERATORS OF SYMMETRY NO:    1 AND LABELS:

          XDIPLEN 
          YDIPLEN 
          ZDIPLEN 

    3 C OPERATORS OF SYMMETRY NO:    1 AND LABELS:

          XDIPLEN 
          YDIPLEN 
          ZDIPLEN 


   SCF energy         :      -76.067280391092666
 -- inactive part     :      -85.256814168679512
 -- nuclear repulsion :        9.189533777586849


                     ***************************************
                     *** RHF response calculation (TDHF) ***
                     ***************************************



 Linear response calculations for quadratic response
 - singlet property operator of symmetry    1  ( A  )


 Perturbation symmetry.     KSYMOP:           1
 Perturbation spin symmetry.TRPLET:           F
 Orbital variables.         KZWOPT:        1840
 Configuration variables.   KZCONF:           0
 Total number of variables. KZVAR :        1840


 QRLRVE -- linear response calculation for symmetry  1  ( A  )
 QRLRVE -- operator label : XDIPLEN 
 QRLRVE -- operator spin  :   0
 QRLRVE -- frequencies :  0.000000  0.019867  0.039733  0.059600  0.079467
                          0.099333  0.119200  0.139067  0.158934



 ---  SOLVING SETS OF LINEAR EQUATIONS FOR LINEAR RESPONSE PROPERTIES ---

 Operator symmetry = 1  ( A  ); triplet =   F


 ** RSPCTL MICROITERATION NUMBER    1

       No.  Residual tot.,    conf., and orb.    Bnorm      Frequency 
      ----------------------------------------------------------------
         1    7.01607D-01  0.00D+00  7.02D-01  2.36D+00    0.00000D+00
         2    7.02441D-01  0.00D+00  7.02D-01  2.36D+00    1.98667D-02
         3    7.04974D-01  0.00D+00  7.05D-01  2.38D+00    3.97334D-02
         4    7.09297D-01  0.00D+00  7.09D-01  2.42D+00    5.96001D-02
         5    7.15576D-01  0.00D+00  7.16D-01  2.46D+00    7.94668D-02
         6    7.24065D-01  0.00D+00  7.24D-01  2.53D+00    9.93334D-02
         7    7.35139D-01  0.00D+00  7.35D-01  2.61D+00    1.19200D-01
         8    7.49344D-01  0.00D+00  7.49D-01  2.71D+00    1.39067D-01
         9    7.67476D-01  0.00D+00  7.67D-01  2.85D+00    1.58934D-01

 ** RSPCTL MICROITERATION NUMBER    2

       No.  Residual tot.,    conf., and orb.    Bnorm      Frequency 
      ----------------------------------------------------------------
         1    8.15438D-02  0.00D+00  8.15D-02  2.45D+00    0.00000D+00
         2    8.19053D-02  0.00D+00  8.19D-02  2.46D+00    1.98667D-02
         3    8.30154D-02  0.00D+00  8.30D-02  2.49D+00    3.97334D-02
         4    8.49548D-02  0.00D+00  8.50D-02  2.53D+00    5.96001D-02
         5    8.78707D-02  0.00D+00  8.79D-02  2.58D+00    7.94668D-02
         6    9.19990D-02  0.00D+00  9.20D-02  2.66D+00    9.93334D-02
         7    9.77028D-02  0.00D+00  9.77D-02  2.77D+00    1.19200D-01
         8    1.05539D-01  0.00D+00  1.06D-01  2.91D+00    1.39067D-01
         9    1.16377D-01  0.00D+00  1.16D-01  3.09D+00    1.58934D-01

 ** RSPCTL MICROITERATION NUMBER    3

       No.  Residual tot.,    conf., and orb.    Bnorm      Frequency 
      ----------------------------------------------------------------
         1    5.37562D-03  0.00D+00  5.38D-03  2.46D+00    0.00000D+00
         2    5.55737D-03  0.00D+00  5.56D-03  2.46D+00    1.98667D-02
         3    6.08827D-03  0.00D+00  6.09D-03  2.49D+00    3.97334D-02
         4    6.93943D-03  0.00D+00  6.94D-03  2.53D+00    5.96001D-02
         5    8.09357D-03  0.00D+00  8.09D-03  2.59D+00    7.94668D-02
         6    9.56243D-03  0.00D+00  9.56D-03  2.67D+00    9.93334D-02
         7    1.13962D-02  0.00D+00  1.14D-02  2.77D+00    1.19200D-01
         8    1.36942D-02  0.00D+00  1.37D-02  2.91D+00    1.39067D-01
         9    1.66275D-02  0.00D+00  1.66D-02  3.10D+00    1.58934D-01

 ** RSPCTL MICROITERATION NUMBER    4

       No.  Residual tot.,    conf., and orb.    Bnorm      Frequency 
      ----------------------------------------------------------------
         1    4.64957D-04  0.00D+00  4.65D-04  2.46D+00    0.00000D+00
         2    4.83560D-04  0.00D+00  4.84D-04  2.46D+00    1.98667D-02
         3    5.38719D-04  0.00D+00  5.39D-04  2.49D+00    3.97334D-02
         4    6.29805D-04  0.00D+00  6.30D-04  2.53D+00    5.96001D-02
         5    7.58660D-04  0.00D+00  7.59D-04  2.59D+00    7.94668D-02
         6    9.31363D-04  0.00D+00  9.31D-04  2.67D+00    9.93334D-02
         7    1.15964D-03  0.00D+00  1.16D-03  2.77D+00    1.19200D-01
         8    1.46303D-03  0.00D+00  1.46D-03  2.91D+00    1.39067D-01
         9    1.87312D-03  0.00D+00  1.87D-03  3.10D+00    1.58934D-01

 *** THE REQUESTED    9 SOLUTION VECTORS CONVERGED

 Convergence of RSP solution vectors, threshold = 1.00D-03
 ---------------------------------------------------------------
 (dimension of paired reduced space:   72)
 RSP solution vector no.    1; norm of residual   1.89D-04
 RSP solution vector no.    2; norm of residual   1.96D-04
 RSP solution vector no.    3; norm of residual   2.17D-04
 RSP solution vector no.    4; norm of residual   2.49D-04
 RSP solution vector no.    5; norm of residual   2.93D-04
 RSP solution vector no.    6; norm of residual   3.49D-04
 RSP solution vector no.    7; norm of residual   4.18D-04
 RSP solution vector no.    8; norm of residual   5.02D-04
 RSP solution vector no.    9; norm of residual   6.04D-04

 *** RSPCTL MICROITERATIONS CONVERGED

@ QRLRVE: SINGLET SOLUTION FOR SYMMETRY    1  ( A  )    LABEL   XDIPLEN     FREQUENCY   0.000000D+00

@ QRLRVE:  << XDIPLEN  ; XDIPLEN  >> (   0.00000):     7.90213889608    

@ QRLRVE:  << YDIPLEN  ; XDIPLEN  >> (   0.00000):    4.735151041974E-16

@ QRLRVE:  << ZDIPLEN  ; XDIPLEN  >> (   0.00000):   -6.107121242476E-16

@ QRLRVE: SINGLET SOLUTION FOR SYMMETRY    1  ( A  )    LABEL   XDIPLEN     FREQUENCY   0.198667D-01

@ QRLRVE:  << XDIPLEN  ; XDIPLEN  >> (   0.01987):     7.91268873192    

@ QRLRVE:  << YDIPLEN  ; XDIPLEN  >> (   0.01987):    4.755683790650E-16

@ QRLRVE:  << ZDIPLEN  ; XDIPLEN  >> (   0.01987):   -6.138369019119E-16

@ QRLRVE: SINGLET SOLUTION FOR SYMMETRY    1  ( A  )    LABEL   XDIPLEN     FREQUENCY   0.397334D-01

@ QRLRVE:  << XDIPLEN  ; XDIPLEN  >> (   0.03973):     7.94466853215    

@ QRLRVE:  << YDIPLEN  ; XDIPLEN  >> (   0.03973):    4.818290110305E-16

@ QRLRVE:  << ZDIPLEN  ; XDIPLEN  >> (   0.03973):   -6.234094392312E-16

@ QRLRVE: SINGLET SOLUTION FOR SYMMETRY    1  ( A  )    LABEL   XDIPLEN     FREQUENCY   0.596001D-01

@ QRLRVE:  << XDIPLEN  ; XDIPLEN  >> (   0.05960):     7.99910354817    

@ QRLRVE:  << YDIPLEN  ; XDIPLEN  >> (   0.05960):    4.926117998201E-16

@ QRLRVE:  << ZDIPLEN  ; XDIPLEN  >> (   0.05960):   -6.400526870090E-16

@ QRLRVE: SINGLET SOLUTION FOR SYMMETRY    1  ( A  )    LABEL   XDIPLEN     FREQUENCY   0.794668D-01

@ QRLRVE:  << XDIPLEN  ; XDIPLEN  >> (   0.07947):     8.07782465946    

@ QRLRVE:  << YDIPLEN  ; XDIPLEN  >> (   0.07947):    5.084855695661E-16

@ QRLRVE:  << ZDIPLEN  ; XDIPLEN  >> (   0.07947):   -6.649065454923E-16

@ QRLRVE: SINGLET SOLUTION FOR SYMMETRY    1  ( A  )    LABEL   XDIPLEN     FREQUENCY   0.993334D-01

@ QRLRVE:  << XDIPLEN  ; XDIPLEN  >> (   0.09933):     8.18368085568    

@ QRLRVE:  << YDIPLEN  ; XDIPLEN  >> (   0.09933):    5.303506837579E-16

@ QRLRVE:  << ZDIPLEN  ; XDIPLEN  >> (   0.09933):   -6.998084202530E-16

@ QRLRVE: SINGLET SOLUTION FOR SYMMETRY    1  ( A  )    LABEL   XDIPLEN     FREQUENCY   0.119200D+00

@ QRLRVE:  << XDIPLEN  ; XDIPLEN  >> (   0.11920):     8.32090731812    

@ QRLRVE:  << YDIPLEN  ; XDIPLEN  >> (   0.11920):    5.595748734622E-16

@ QRLRVE:  << ZDIPLEN  ; XDIPLEN  >> (   0.11920):   -7.476144613053E-16

@ QRLRVE: SINGLET SOLUTION FOR SYMMETRY    1  ( A  )    LABEL   XDIPLEN     FREQUENCY   0.139067D+00

@ QRLRVE:  << XDIPLEN  ; XDIPLEN  >> (   0.13907):     8.49575548740    

@ QRLRVE:  << YDIPLEN  ; XDIPLEN  >> (   0.13907):    5.982288596701E-16

@ QRLRVE:  << ZDIPLEN  ; XDIPLEN  >> (   0.13907):   -8.127667716816E-16

@ QRLRVE: SINGLET SOLUTION FOR SYMMETRY    1  ( A  )    LABEL   XDIPLEN     FREQUENCY   0.158934D+00

@ QRLRVE:  << XDIPLEN  ; XDIPLEN  >> (   0.15893):     8.71760026453    

@ QRLRVE:  << YDIPLEN  ; XDIPLEN  >> (   0.15893):    6.495062556764E-16

@ QRLRVE:  << ZDIPLEN  ; XDIPLEN  >> (   0.15893):   -9.023233553507E-16


 QRLRVE -- linear response calculation for symmetry  1  ( A  )
 QRLRVE -- operator label : YDIPLEN 
 QRLRVE -- operator spin  :   0
 QRLRVE -- frequencies :  0.000000  0.019867  0.039733  0.059600  0.079467
                          0.099333  0.119200  0.139067  0.158934



 ---  SOLVING SETS OF LINEAR EQUATIONS FOR LINEAR RESPONSE PROPERTIES ---

 Operator symmetry = 1  ( A  ); triplet =   F

RSPORT:    1 out of    9 new trial vectors linear dependent

 ** RSPCTL MICROITERATION NUMBER    1

       No.  Residual tot.,    conf., and orb.    Bnorm      Frequency 
      ----------------------------------------------------------------
         1    8.77450D-01  0.00D+00  8.77D-01  2.34D+00    0.00000D+00
         2    8.78091D-01  0.00D+00  8.78D-01  2.35D+00    1.98667D-02
         3    8.80022D-01  0.00D+00  8.80D-01  2.36D+00    3.97334D-02
         4    8.83269D-01  0.00D+00  8.83D-01  2.38D+00    5.96001D-02
         5    8.87876D-01  0.00D+00  8.88D-01  2.41D+00    7.94668D-02
         6    8.93905D-01  0.00D+00  8.94D-01  2.45D+00    9.93334D-02
         7    9.01443D-01  0.00D+00  9.01D-01  2.49D+00    1.19200D-01
         8    9.10601D-01  0.00D+00  9.11D-01  2.55D+00    1.39067D-01
         9    9.21521D-01  0.00D+00  9.22D-01  2.62D+00    1.58934D-01

 ** RSPCTL MICROITERATION NUMBER    2

       No.  Residual tot.,    conf., and orb.    Bnorm      Frequency 
      ----------------------------------------------------------------
         1    9.30515D-02  0.00D+00  9.31D-02  2.43D+00    0.00000D+00
         2    9.32274D-02  0.00D+00  9.32D-02  2.44D+00    1.98667D-02
         3    9.37593D-02  0.00D+00  9.38D-02  2.45D+00    3.97334D-02
         4    9.46605D-02  0.00D+00  9.47D-02  2.47D+00    5.96001D-02
         5    9.59536D-02  0.00D+00  9.60D-02  2.50D+00    7.94668D-02
         6    9.76724D-02  0.00D+00  9.77D-02  2.54D+00    9.93334D-02
         7    9.98635D-02  0.00D+00  9.99D-02  2.59D+00    1.19200D-01
         8    1.02589D-01  0.00D+00  1.03D-01  2.65D+00    1.39067D-01
         9    1.05932D-01  0.00D+00  1.06D-01  2.73D+00    1.58934D-01

 ** RSPCTL MICROITERATION NUMBER    3

       No.  Residual tot.,    conf., and orb.    Bnorm      Frequency 
      ----------------------------------------------------------------
         1    9.65284D-03  0.00D+00  9.65D-03  2.43D+00    0.00000D+00
         2    9.70671D-03  0.00D+00  9.71D-03  2.44D+00    1.98667D-02
         3    9.86944D-03  0.00D+00  9.87D-03  2.45D+00    3.97334D-02
         4    1.01444D-02  0.00D+00  1.01D-02  2.47D+00    5.96001D-02
         5    1.05376D-02  0.00D+00  1.05D-02  2.50D+00    7.94668D-02
         6    1.10580D-02  0.00D+00  1.11D-02  2.54D+00    9.93334D-02
         7    1.17185D-02  0.00D+00  1.17D-02  2.59D+00    1.19200D-01
         8    1.25367D-02  0.00D+00  1.25D-02  2.65D+00    1.39067D-01
         9    1.35362D-02  0.00D+00  1.35D-02  2.73D+00    1.58934D-01

 ** RSPCTL MICROITERATION NUMBER    4

       No.  Residual tot.,    conf., and orb.    Bnorm      Frequency 
      ----------------------------------------------------------------
         1    9.01825D-04  0.00D+00  9.02D-04  2.43D+00    0.00000D+00
         2    9.07753D-04  0.00D+00  9.08D-04  2.44D+00    1.98667D-02
         3    9.25723D-04  0.00D+00  9.26D-04  2.45D+00    3.97334D-02
         4    9.56310D-04  0.00D+00  9.56D-04  2.47D+00    5.96001D-02
         5    1.00053D-03  0.00D+00  1.00D-03  2.50D+00    7.94668D-02
         6    1.05991D-03  0.00D+00  1.06D-03  2.54D+00    9.93334D-02
         7    1.13665D-03  0.00D+00  1.14D-03  2.59D+00    1.19200D-01
         8    1.23380D-03  0.00D+00  1.23D-03  2.65D+00    1.39067D-01
         9    1.35555D-03  0.00D+00  1.36D-03  2.73D+00    1.58934D-01

 *** THE REQUESTED    9 SOLUTION VECTORS CONVERGED

 Convergence of RSP solution vectors, threshold = 1.00D-03
 ---------------------------------------------------------------
 (dimension of paired reduced space:   70)
 RSP solution vector no.    1; norm of residual   3.71D-04
 RSP solution vector no.    2; norm of residual   3.73D-04
 RSP solution vector no.    3; norm of residual   3.78D-04
 RSP solution vector no.    4; norm of residual   3.87D-04
 RSP solution vector no.    5; norm of residual   4.00D-04
 RSP solution vector no.    6; norm of residual   4.17D-04
 RSP solution vector no.    7; norm of residual   4.38D-04
 RSP solution vector no.    8; norm of residual   4.65D-04
 RSP solution vector no.    9; norm of residual   4.97D-04

 *** RSPCTL MICROITERATIONS CONVERGED

@ QRLRVE: SINGLET SOLUTION FOR SYMMETRY    1  ( A  )    LABEL   YDIPLEN     FREQUENCY   0.000000D+00

@ QRLRVE:  << XDIPLEN  ; YDIPLEN  >> (   0.00000):    2.737588443104E-16

@ QRLRVE:  << YDIPLEN  ; YDIPLEN  >> (   0.00000):     9.19275006704    

@ QRLRVE:  << ZDIPLEN  ; YDIPLEN  >> (   0.00000):   -3.539265965641E-05

@ QRLRVE: SINGLET SOLUTION FOR SYMMETRY    1  ( A  )    LABEL   YDIPLEN     FREQUENCY   0.198667D-01

@ QRLRVE:  << XDIPLEN  ; YDIPLEN  >> (   0.01987):    2.750534492237E-16

@ QRLRVE:  << YDIPLEN  ; YDIPLEN  >> (   0.01987):     9.20110491995    

@ QRLRVE:  << ZDIPLEN  ; YDIPLEN  >> (   0.01987):   -3.567762721155E-05

@ QRLRVE: SINGLET SOLUTION FOR SYMMETRY    1  ( A  )    LABEL   YDIPLEN     FREQUENCY   0.397334D-01

@ QRLRVE:  << XDIPLEN  ; YDIPLEN  >> (   0.03973):    2.789875627626E-16

@ QRLRVE:  << YDIPLEN  ; YDIPLEN  >> (   0.03973):     9.22628852401    

@ QRLRVE:  << ZDIPLEN  ; YDIPLEN  >> (   0.03973):   -3.654846001567E-05

@ QRLRVE: SINGLET SOLUTION FOR SYMMETRY    1  ( A  )    LABEL   YDIPLEN     FREQUENCY   0.596001D-01

@ QRLRVE:  << XDIPLEN  ; YDIPLEN  >> (   0.05960):    2.857145082462E-16

@ QRLRVE:  << YDIPLEN  ; YDIPLEN  >> (   0.05960):     9.26866287794    

@ QRLRVE:  << ZDIPLEN  ; YDIPLEN  >> (   0.05960):   -3.805478241642E-05

@ QRLRVE: SINGLET SOLUTION FOR SYMMETRY    1  ( A  )    LABEL   YDIPLEN     FREQUENCY   0.794668D-01

@ QRLRVE:  << XDIPLEN  ; YDIPLEN  >> (   0.07947):    2.954978045269E-16

@ QRLRVE:  << YDIPLEN  ; YDIPLEN  >> (   0.07947):     9.32884792538    

@ QRLRVE:  << ZDIPLEN  ; YDIPLEN  >> (   0.07947):   -4.028574289369E-05

@ QRLRVE: SINGLET SOLUTION FOR SYMMETRY    1  ( A  )    LABEL   YDIPLEN     FREQUENCY   0.993334D-01

@ QRLRVE:  << XDIPLEN  ; YDIPLEN  >> (   0.09933):    3.087226011682E-16

@ QRLRVE:  << YDIPLEN  ; YDIPLEN  >> (   0.09933):     9.40774794402    

@ QRLRVE:  << ZDIPLEN  ; YDIPLEN  >> (   0.09933):   -4.338090687135E-05

@ QRLRVE: SINGLET SOLUTION FOR SYMMETRY    1  ( A  )    LABEL   YDIPLEN     FREQUENCY   0.119200D+00

@ QRLRVE:  << XDIPLEN  ; YDIPLEN  >> (   0.11920):    3.259099855047E-16

@ QRLRVE:  << YDIPLEN  ; YDIPLEN  >> (   0.11920):     9.50659165058    

@ QRLRVE:  << ZDIPLEN  ; YDIPLEN  >> (   0.11920):   -4.754829369506E-05

@ QRLRVE: SINGLET SOLUTION FOR SYMMETRY    1  ( A  )    LABEL   YDIPLEN     FREQUENCY   0.139067D+00

@ QRLRVE:  << XDIPLEN  ; YDIPLEN  >> (   0.13907):    3.477305967533E-16

@ QRLRVE:  << YDIPLEN  ; YDIPLEN  >> (   0.13907):     9.62698974393    

@ QRLRVE:  << ZDIPLEN  ; YDIPLEN  >> (   0.13907):   -5.309321847244E-05

@ QRLRVE: SINGLET SOLUTION FOR SYMMETRY    1  ( A  )    LABEL   YDIPLEN     FREQUENCY   0.158934D+00

@ QRLRVE:  << XDIPLEN  ; YDIPLEN  >> (   0.15893):    3.750090584611E-16

@ QRLRVE:  << YDIPLEN  ; YDIPLEN  >> (   0.15893):     9.77101562214    

@ QRLRVE:  << ZDIPLEN  ; YDIPLEN  >> (   0.15893):   -6.046424273486E-05


 QRLRVE -- linear response calculation for symmetry  1  ( A  )
 QRLRVE -- operator label : ZDIPLEN 
 QRLRVE -- operator spin  :   0
 QRLRVE -- frequencies :  0.000000  0.019867  0.039733  0.059600  0.079467
                          0.099333  0.119200  0.139067  0.158934



 ---  SOLVING SETS OF LINEAR EQUATIONS FOR LINEAR RESPONSE PROPERTIES ---

 Operator symmetry = 1  ( A  ); triplet =   F

RSPORT:    1 out of    9 new trial vectors linear dependent

 ** RSPCTL MICROITERATION NUMBER    1

       No.  Residual tot.,    conf., and orb.    Bnorm      Frequency 
      ----------------------------------------------------------------
         1    1.55953D+00  0.00D+00  1.56D+00  2.21D+00    0.00000D+00
         2    1.56101D+00  0.00D+00  1.56D+00  2.21D+00    1.98667D-02
         3    1.56549D+00  0.00D+00  1.57D+00  2.23D+00    3.97334D-02
         4    1.57304D+00  0.00D+00  1.57D+00  2.25D+00    5.96001D-02
         5    1.58380D+00  0.00D+00  1.58D+00  2.28D+00    7.94668D-02
         6    1.59797D+00  0.00D+00  1.60D+00  2.33D+00    9.93334D-02
         7    1.61584D+00  0.00D+00  1.62D+00  2.38D+00    1.19200D-01
         8    1.63778D+00  0.00D+00  1.64D+00  2.45D+00    1.39067D-01
         9    1.66430D+00  0.00D+00  1.66D+00  2.53D+00    1.58934D-01

 ** RSPCTL MICROITERATION NUMBER    2

       No.  Residual tot.,    conf., and orb.    Bnorm      Frequency 
      ----------------------------------------------------------------
         1    4.00700D-01  0.00D+00  4.01D-01  2.40D+00    0.00000D+00
         2    4.01371D-01  0.00D+00  4.01D-01  2.41D+00    1.98667D-02
         3    4.03402D-01  0.00D+00  4.03D-01  2.42D+00    3.97334D-02
         4    4.06843D-01  0.00D+00  4.07D-01  2.45D+00    5.96001D-02
         5    4.11781D-01  0.00D+00  4.12D-01  2.49D+00    7.94668D-02
         6    4.18350D-01  0.00D+00  4.18D-01  2.54D+00    9.93334D-02
         7    4.26735D-01  0.00D+00  4.27D-01  2.61D+00    1.19200D-01
         8    4.37194D-01  0.00D+00  4.37D-01  2.69D+00    1.39067D-01
         9    4.50080D-01  0.00D+00  4.50D-01  2.80D+00    1.58934D-01

 ** RSPCTL MICROITERATION NUMBER    3

       No.  Residual tot.,    conf., and orb.    Bnorm      Frequency 
      ----------------------------------------------------------------
         1    4.43979D-02  0.00D+00  4.44D-02  2.42D+00    0.00000D+00
         2    4.44894D-02  0.00D+00  4.45D-02  2.42D+00    1.98667D-02
         3    4.47668D-02  0.00D+00  4.48D-02  2.44D+00    3.97334D-02
         4    4.52384D-02  0.00D+00  4.52D-02  2.47D+00    5.96001D-02
         5    4.59192D-02  0.00D+00  4.59D-02  2.51D+00    7.94668D-02
         6    4.68319D-02  0.00D+00  4.68D-02  2.56D+00    9.93334D-02
         7    4.80091D-02  0.00D+00  4.80D-02  2.63D+00    1.19200D-01
         8    4.94972D-02  0.00D+00  4.95D-02  2.72D+00    1.39067D-01
         9    5.13617D-02  0.00D+00  5.14D-02  2.83D+00    1.58934D-01

 ** RSPCTL MICROITERATION NUMBER    4

       No.  Residual tot.,    conf., and orb.    Bnorm      Frequency 
      ----------------------------------------------------------------
         1    3.49493D-03  0.00D+00  3.49D-03  2.42D+00    0.00000D+00
         2    3.50774D-03  0.00D+00  3.51D-03  2.42D+00    1.98667D-02
         3    3.54671D-03  0.00D+00  3.55D-03  2.44D+00    3.97334D-02
         4    3.61357D-03  0.00D+00  3.61D-03  2.47D+00    5.96001D-02
         5    3.71133D-03  0.00D+00  3.71D-03  2.51D+00    7.94668D-02
         6    3.84459D-03  0.00D+00  3.84D-03  2.56D+00    9.93334D-02
         7    4.01999D-03  0.00D+00  4.02D-03  2.63D+00    1.19200D-01
         8    4.24686D-03  0.00D+00  4.25D-03  2.72D+00    1.39067D-01
         9    4.53828D-03  0.00D+00  4.54D-03  2.83D+00    1.58934D-01

 ** RSPCTL MICROITERATION NUMBER    5

       No.  Residual tot.,    conf., and orb.    Bnorm      Frequency 
      ----------------------------------------------------------------
         1    5.49616D-04  0.00D+00  5.50D-04  2.42D+00    0.00000D+00
         2    5.52240D-04  0.00D+00  5.52D-04  2.42D+00    1.98667D-02
         3    5.60218D-04  0.00D+00  5.60D-04  2.44D+00    3.97334D-02
         4    5.73880D-04  0.00D+00  5.74D-04  2.47D+00    5.96001D-02
         5    5.93808D-04  0.00D+00  5.94D-04  2.51D+00    7.94668D-02
         6    6.20889D-04  0.00D+00  6.21D-04  2.56D+00    9.93334D-02
         7    6.56405D-04  0.00D+00  6.56D-04  2.63D+00    1.19200D-01
         8    7.02174D-04  0.00D+00  7.02D-04  2.72D+00    1.39067D-01
         9    7.60772D-04  0.00D+00  7.61D-04  2.83D+00    1.58934D-01

 *** THE REQUESTED    9 SOLUTION VECTORS CONVERGED

 Convergence of RSP solution vectors, threshold = 1.00D-03
 ---------------------------------------------------------------
 (dimension of paired reduced space:   88)
 RSP solution vector no.    1; norm of residual   2.27D-04
 RSP solution vector no.    2; norm of residual   2.28D-04
 RSP solution vector no.    3; norm of residual   2.30D-04
 RSP solution vector no.    4; norm of residual   2.32D-04
 RSP solution vector no.    5; norm of residual   2.37D-04
 RSP solution vector no.    6; norm of residual   2.42D-04
 RSP solution vector no.    7; norm of residual   2.49D-04
 RSP solution vector no.    8; norm of residual   2.58D-04
 RSP solution vector no.    9; norm of residual   2.69D-04

 *** RSPCTL MICROITERATIONS CONVERGED

@ QRLRVE: SINGLET SOLUTION FOR SYMMETRY    1  ( A  )    LABEL   ZDIPLEN     FREQUENCY   0.000000D+00

@ QRLRVE:  << XDIPLEN  ; ZDIPLEN  >> (   0.00000):   -1.713164419823E-15

@ QRLRVE:  << YDIPLEN  ; ZDIPLEN  >> (   0.00000):    2.466615177875E-04

@ QRLRVE:  << ZDIPLEN  ; ZDIPLEN  >> (   0.00000):     8.53070189560    

[...]
@ B-freq = 0.079467  C-freq = 0.059600     beta(X;Z,Y) =      0.00000000
@ B-freq = 0.079467  C-freq = 0.059600     beta(Y;Z,Y) =     10.75389863
@ B-freq = 0.079467  C-freq = 0.059600     beta(Z;Z,Y) =      0.00158224
@ B-freq = 0.000000  C-freq = 0.079467     beta(X;X,Y) = beta(X,Y,X)
@ B-freq = 0.000000  C-freq = 0.079467     beta(Y;X,Y) = beta(Y,Y,X)
@ B-freq = 0.000000  C-freq = 0.079467     beta(Z;X,Y) = beta(Z,Y,X)
@ B-freq = 0.019867  C-freq = 0.079467     beta(X;X,Y) = beta(X,Y,X)
@ B-freq = 0.019867  C-freq = 0.079467     beta(Y;X,Y) = beta(Y,Y,X)
@ B-freq = 0.019867  C-freq = 0.079467     beta(Z;X,Y) = beta(Z,Y,X)
@ B-freq = 0.039733  C-freq = 0.079467     beta(X;X,Y) = beta(X,Y,X)
@ B-freq = 0.039733  C-freq = 0.079467     beta(Y;X,Y) = beta(Y,Y,X)
@ B-freq = 0.039733  C-freq = 0.079467     beta(Z;X,Y) = beta(Z,Y,X)
@ B-freq = 0.059600  C-freq = 0.079467     beta(X;X,Y) = beta(X,Y,X)
@ B-freq = 0.059600  C-freq = 0.079467     beta(Y;X,Y) = beta(Y,Y,X)
@ B-freq = 0.059600  C-freq = 0.079467     beta(Z;X,Y) = beta(Z,Y,X)
@ B-freq = 0.079467  C-freq = 0.079467     beta(X;X,Y) = beta(X,Y,X)
@ B-freq = 0.079467  C-freq = 0.079467     beta(Y;X,Y) = beta(Y,Y,X)
@ B-freq = 0.079467  C-freq = 0.079467     beta(Z;X,Y) = beta(Z,Y,X)
@ B-freq = 0.000000  C-freq = 0.079467     beta(X;Y,Y) = beta(X,Y,Y)
@ B-freq = 0.000000  C-freq = 0.079467     beta(Y;Y,Y) = beta(Y,Y,Y)
@ B-freq = 0.000000  C-freq = 0.079467     beta(Z;Y,Y) = beta(Z,Y,Y)
@ B-freq = 0.019867  C-freq = 0.079467     beta(X;Y,Y) = beta(X,Y,Y)
@ B-freq = 0.019867  C-freq = 0.079467     beta(Y;Y,Y) = beta(Y,Y,Y)
@ B-freq = 0.019867  C-freq = 0.079467     beta(Z;Y,Y) = beta(Z,Y,Y)
@ B-freq = 0.039733  C-freq = 0.079467     beta(X;Y,Y) = beta(X,Y,Y)
@ B-freq = 0.039733  C-freq = 0.079467     beta(Y;Y,Y) = beta(Y,Y,Y)
@ B-freq = 0.039733  C-freq = 0.079467     beta(Z;Y,Y) = beta(Z,Y,Y)
@ B-freq = 0.059600  C-freq = 0.079467     beta(X;Y,Y) = beta(X,Y,Y)
@ B-freq = 0.059600  C-freq = 0.079467     beta(Y;Y,Y) = beta(Y,Y,Y)
@ B-freq = 0.059600  C-freq = 0.079467     beta(Z;Y,Y) = beta(Z,Y,Y)
@ B-freq = 0.079467  C-freq = 0.079467     beta(X;Y,Y) =     -0.00000000
@ B-freq = 0.079467  C-freq = 0.079467     beta(Y;Y,Y) =      0.00011691
@ B-freq = 0.079467  C-freq = 0.079467     beta(Z;Y,Y) =     11.27050877
@ B-freq = 0.000000  C-freq = 0.079467     beta(X;Z,Y) =      0.00000000
@ B-freq = 0.000000  C-freq = 0.079467     beta(Y;Z,Y) =      9.96148523
@ B-freq = 0.000000  C-freq = 0.079467     beta(Z;Z,Y) =      0.00120614
@ B-freq = 0.019867  C-freq = 0.079467     beta(X;Z,Y) =      0.00000000
@ B-freq = 0.019867  C-freq = 0.079467     beta(Y;Z,Y) =     10.13913141
@ B-freq = 0.019867  C-freq = 0.079467     beta(Z;Z,Y) =      0.00127664
@ B-freq = 0.039733  C-freq = 0.079467     beta(X;Z,Y) =      0.00000000
@ B-freq = 0.039733  C-freq = 0.079467     beta(Y;Z,Y) =     10.39752966
@ B-freq = 0.039733  C-freq = 0.079467     beta(Z;Z,Y) =      0.00138520
@ B-freq = 0.059600  C-freq = 0.079467     beta(X;Z,Y) =      0.00000000
@ B-freq = 0.059600  C-freq = 0.079467     beta(Y;Z,Y) =     10.74644418
@ B-freq = 0.059600  C-freq = 0.079467     beta(Z;Z,Y) =      0.00154401
@ B-freq = 0.079467  C-freq = 0.079467     beta(X;Z,Y) =      0.00000000
@ B-freq = 0.079467  C-freq = 0.079467     beta(Y;Z,Y) =     11.19998455
@ B-freq = 0.079467  C-freq = 0.079467     beta(Z;Z,Y) =      0.00177282
@ B-freq = 0.000000  C-freq = 0.000000     beta(X;X,Z) = beta(Z,X,X)
@ B-freq = 0.000000  C-freq = 0.000000     beta(Y;X,Z) = beta(Z,Y,X)
@ B-freq = 0.000000  C-freq = 0.000000     beta(Z;X,Z) = beta(Z,Z,X)
@ B-freq = 0.019867  C-freq = 0.000000     beta(X;X,Z) = beta(X,Z,X)
@ B-freq = 0.019867  C-freq = 0.000000     beta(Y;X,Z) = beta(Y,Z,X)
@ B-freq = 0.019867  C-freq = 0.000000     beta(Z;X,Z) = beta(Z,Z,X)
@ B-freq = 0.039733  C-freq = 0.000000     beta(X;X,Z) = beta(X,Z,X)
@ B-freq = 0.039733  C-freq = 0.000000     beta(Y;X,Z) = beta(Y,Z,X)
@ B-freq = 0.039733  C-freq = 0.000000     beta(Z;X,Z) = beta(Z,Z,X)
@ B-freq = 0.059600  C-freq = 0.000000     beta(X;X,Z) = beta(X,Z,X)
@ B-freq = 0.059600  C-freq = 0.000000     beta(Y;X,Z) = beta(Y,Z,X)
@ B-freq = 0.059600  C-freq = 0.000000     beta(Z;X,Z) = beta(Z,Z,X)
@ B-freq = 0.079467  C-freq = 0.000000     beta(X;X,Z) = beta(X,Z,X)
@ B-freq = 0.079467  C-freq = 0.000000     beta(Y;X,Z) = beta(Y,Z,X)
@ B-freq = 0.079467  C-freq = 0.000000     beta(Z;X,Z) = beta(Z,Z,X)
@ B-freq = 0.000000  C-freq = 0.000000     beta(X;Y,Z) = beta(Z,Y,X)
@ B-freq = 0.000000  C-freq = 0.000000     beta(Y;Y,Z) = beta(Z,Y,Y)
@ B-freq = 0.000000  C-freq = 0.000000     beta(Z;Y,Z) = beta(Z,Z,Y)
@ B-freq = 0.019867  C-freq = 0.000000     beta(X;Y,Z) = beta(X,Z,Y)
@ B-freq = 0.019867  C-freq = 0.000000     beta(Y;Y,Z) = beta(Y,Z,Y)
@ B-freq = 0.019867  C-freq = 0.000000     beta(Z;Y,Z) = beta(Z,Z,Y)
@ B-freq = 0.039733  C-freq = 0.000000     beta(X;Y,Z) = beta(X,Z,Y)
@ B-freq = 0.039733  C-freq = 0.000000     beta(Y;Y,Z) = beta(Y,Z,Y)
@ B-freq = 0.039733  C-freq = 0.000000     beta(Z;Y,Z) = beta(Z,Z,Y)
@ B-freq = 0.059600  C-freq = 0.000000     beta(X;Y,Z) = beta(X,Z,Y)
@ B-freq = 0.059600  C-freq = 0.000000     beta(Y;Y,Z) = beta(Y,Z,Y)
@ B-freq = 0.059600  C-freq = 0.000000     beta(Z;Y,Z) = beta(Z,Z,Y)
@ B-freq = 0.079467  C-freq = 0.000000     beta(X;Y,Z) = beta(X,Z,Y)
@ B-freq = 0.079467  C-freq = 0.000000     beta(Y;Y,Z) = beta(Y,Z,Y)
@ B-freq = 0.079467  C-freq = 0.000000     beta(Z;Y,Z) = beta(Z,Z,Y)
@ B-freq = 0.000000  C-freq = 0.000000     beta(X;Z,Z) = beta(Z,Z,X)
@ B-freq = 0.000000  C-freq = 0.000000     beta(Y;Z,Z) = beta(Z,Z,Y)
@ B-freq = 0.000000  C-freq = 0.000000     beta(X;Z,Z) =     -0.00000000
@ B-freq = 0.000000  C-freq = 0.000000     beta(Y;Z,Z) =      0.00107806
@ B-freq = 0.000000  C-freq = 0.000000     beta(Z;Z,Z) =      7.68695807
@ B-freq = 0.019867  C-freq = 0.000000     beta(X;Z,Z) =     -0.00000000
@ B-freq = 0.019867  C-freq = 0.000000     beta(Y;Z,Z) =      0.00108553
@ B-freq = 0.019867  C-freq = 0.000000     beta(Z;Z,Z) =      7.72268237
@ B-freq = 0.039733  C-freq = 0.000000     beta(X;Z,Z) =     -0.00000000
@ B-freq = 0.039733  C-freq = 0.000000     beta(Y;Z,Z) =      0.00110834
@ B-freq = 0.039733  C-freq = 0.000000     beta(Z;Z,Z) =      7.83145792
@ B-freq = 0.059600  C-freq = 0.000000     beta(X;Z,Z) =     -0.00000000
@ B-freq = 0.059600  C-freq = 0.000000     beta(Y;Z,Z) =      0.00114778
@ B-freq = 0.059600  C-freq = 0.000000     beta(Z;Z,Z) =      8.01825701
@ B-freq = 0.079467  C-freq = 0.000000     beta(X;Z,Z) =     -0.00000000
@ B-freq = 0.079467  C-freq = 0.000000     beta(Y;Z,Z) =      0.00120614
@ B-freq = 0.079467  C-freq = 0.000000     beta(Z;Z,Z) =      8.29194486
@ B-freq = 0.000000  C-freq = 0.019867     beta(X;X,Z) = beta(X,Z,X)
@ B-freq = 0.000000  C-freq = 0.019867     beta(Y;X,Z) = beta(Y,Z,X)
@ B-freq = 0.000000  C-freq = 0.019867     beta(Z;X,Z) = beta(Z,Z,X)
@ B-freq = 0.019867  C-freq = 0.019867     beta(X;X,Z) = beta(X,Z,X)
@ B-freq = 0.019867  C-freq = 0.019867     beta(Y;X,Z) = beta(Y,Z,X)
@ B-freq = 0.019867  C-freq = 0.019867     beta(Z;X,Z) = beta(Z,Z,X)
@ B-freq = 0.039733  C-freq = 0.019867     beta(X;X,Z) = beta(X,Z,X)
@ B-freq = 0.039733  C-freq = 0.019867     beta(Y;X,Z) = beta(Y,Z,X)
@ B-freq = 0.039733  C-freq = 0.019867     beta(Z;X,Z) = beta(Z,Z,X)
@ B-freq = 0.059600  C-freq = 0.019867     beta(X;X,Z) = beta(X,Z,X)
@ B-freq = 0.059600  C-freq = 0.019867     beta(Y;X,Z) = beta(Y,Z,X)
@ B-freq = 0.059600  C-freq = 0.019867     beta(Z;X,Z) = beta(Z,Z,X)
@ B-freq = 0.079467  C-freq = 0.019867     beta(X;X,Z) = beta(X,Z,X)
@ B-freq = 0.079467  C-freq = 0.019867     beta(Y;X,Z) = beta(Y,Z,X)
@ B-freq = 0.079467  C-freq = 0.019867     beta(Z;X,Z) = beta(Z,Z,X)
@ B-freq = 0.000000  C-freq = 0.019867     beta(X;Y,Z) = beta(X,Z,Y)
@ B-freq = 0.000000  C-freq = 0.019867     beta(Y;Y,Z) = beta(Y,Z,Y)
@ B-freq = 0.000000  C-freq = 0.019867     beta(Z;Y,Z) = beta(Z,Z,Y)
@ B-freq = 0.019867  C-freq = 0.019867     beta(X;Y,Z) = beta(X,Z,Y)
@ B-freq = 0.019867  C-freq = 0.019867     beta(Y;Y,Z) = beta(Y,Z,Y)
@ B-freq = 0.019867  C-freq = 0.019867     beta(Z;Y,Z) = beta(Z,Z,Y)
@ B-freq = 0.039733  C-freq = 0.019867     beta(X;Y,Z) = beta(X,Z,Y)
@ B-freq = 0.039733  C-freq = 0.019867     beta(Y;Y,Z) = beta(Y,Z,Y)
@ B-freq = 0.039733  C-freq = 0.019867     beta(Z;Y,Z) = beta(Z,Z,Y)
@ B-freq = 0.059600  C-freq = 0.019867     beta(X;Y,Z) = beta(X,Z,Y)
@ B-freq = 0.059600  C-freq = 0.019867     beta(Y;Y,Z) = beta(Y,Z,Y)
@ B-freq = 0.059600  C-freq = 0.019867     beta(Z;Y,Z) = beta(Z,Z,Y)
@ B-freq = 0.079467  C-freq = 0.019867     beta(X;Y,Z) = beta(X,Z,Y)
@ B-freq = 0.079467  C-freq = 0.019867     beta(Y;Y,Z) = beta(Y,Z,Y)
@ B-freq = 0.079467  C-freq = 0.019867     beta(Z;Y,Z) = beta(Z,Z,Y)
@ B-freq = 0.000000  C-freq = 0.019867     beta(X;Z,Z) = beta(X,Z,Z)
@ B-freq = 0.000000  C-freq = 0.019867     beta(Y;Z,Z) = beta(Y,Z,Z)
@ B-freq = 0.000000  C-freq = 0.019867     beta(Z;Z,Z) = beta(Z,Z,Z)
@ B-freq = 0.019867  C-freq = 0.019867     beta(X;Z,Z) =     -0.00000000
@ B-freq = 0.019867  C-freq = 0.019867     beta(Y;Z,Z) =      0.00109680
@ B-freq = 0.019867  C-freq = 0.019867     beta(Z;Z,Z) =      7.79493005
@ B-freq = 0.039733  C-freq = 0.019867     beta(X;Z,Z) =     -0.00000000
@ B-freq = 0.039733  C-freq = 0.019867     beta(Y;Z,Z) =      0.00112336
@ B-freq = 0.039733  C-freq = 0.019867     beta(Z;Z,Z) =      7.94269874
@ B-freq = 0.059600  C-freq = 0.019867     beta(X;Z,Z) =     -0.00000000
@ B-freq = 0.059600  C-freq = 0.019867     beta(Y;Z,Z) =      0.00116641
@ B-freq = 0.059600  C-freq = 0.019867     beta(Z;Z,Z) =      8.17287527
@ B-freq = 0.079467  C-freq = 0.019867     beta(X;Z,Z) =     -0.00000000
@ B-freq = 0.079467  C-freq = 0.019867     beta(Y;Z,Z) =      0.00122807
@ B-freq = 0.079467  C-freq = 0.019867     beta(Z;Z,Z) =      8.49670380
@ B-freq = 0.000000  C-freq = 0.039733     beta(X;X,Z) = beta(X,Z,X)
@ B-freq = 0.000000  C-freq = 0.039733     beta(Y;X,Z) = beta(Y,Z,X)
@ B-freq = 0.000000  C-freq = 0.039733     beta(Z;X,Z) = beta(Z,Z,X)
@ B-freq = 0.019867  C-freq = 0.039733     beta(X;X,Z) = beta(X,Z,X)
@ B-freq = 0.019867  C-freq = 0.039733     beta(Y;X,Z) = beta(Y,Z,X)
@ B-freq = 0.019867  C-freq = 0.039733     beta(Z;X,Z) = beta(Z,Z,X)
@ B-freq = 0.039733  C-freq = 0.039733     beta(X;X,Z) = beta(X,Z,X)
@ B-freq = 0.039733  C-freq = 0.039733     beta(Y;X,Z) = beta(Y,Z,X)
@ B-freq = 0.039733  C-freq = 0.039733     beta(Z;X,Z) = beta(Z,Z,X)
@ B-freq = 0.059600  C-freq = 0.039733     beta(X;X,Z) = beta(X,Z,X)
@ B-freq = 0.059600  C-freq = 0.039733     beta(Y;X,Z) = beta(Y,Z,X)
@ B-freq = 0.059600  C-freq = 0.039733     beta(Z;X,Z) = beta(Z,Z,X)
@ B-freq = 0.079467  C-freq = 0.039733     beta(X;X,Z) = beta(X,Z,X)
@ B-freq = 0.079467  C-freq = 0.039733     beta(Y;X,Z) = beta(Y,Z,X)
@ B-freq = 0.079467  C-freq = 0.039733     beta(Z;X,Z) = beta(Z,Z,X)
@ B-freq = 0.000000  C-freq = 0.039733     beta(X;Y,Z) = beta(X,Z,Y)
@ B-freq = 0.000000  C-freq = 0.039733     beta(Y;Y,Z) = beta(Y,Z,Y)
@ B-freq = 0.000000  C-freq = 0.039733     beta(Z;Y,Z) = beta(Z,Z,Y)
@ B-freq = 0.019867  C-freq = 0.039733     beta(X;Y,Z) = beta(X,Z,Y)
@ B-freq = 0.019867  C-freq = 0.039733     beta(Y;Y,Z) = beta(Y,Z,Y)
@ B-freq = 0.019867  C-freq = 0.039733     beta(Z;Y,Z) = beta(Z,Z,Y)
@ B-freq = 0.039733  C-freq = 0.039733     beta(X;Y,Z) = beta(X,Z,Y)
@ B-freq = 0.039733  C-freq = 0.039733     beta(Y;Y,Z) = beta(Y,Z,Y)
@ B-freq = 0.039733  C-freq = 0.039733     beta(Z;Y,Z) = beta(Z,Z,Y)
@ B-freq = 0.059600  C-freq = 0.039733     beta(X;Y,Z) = beta(X,Z,Y)
@ B-freq = 0.059600  C-freq = 0.039733     beta(Y;Y,Z) = beta(Y,Z,Y)
@ B-freq = 0.059600  C-freq = 0.039733     beta(Z;Y,Z) = beta(Z,Z,Y)
@ B-freq = 0.079467  C-freq = 0.039733     beta(X;Y,Z) = beta(X,Z,Y)
@ B-freq = 0.079467  C-freq = 0.039733     beta(Y;Y,Z) = beta(Y,Z,Y)
@ B-freq = 0.079467  C-freq = 0.039733     beta(Z;Y,Z) = beta(Z,Z,Y)
@ B-freq = 0.000000  C-freq = 0.039733     beta(X;Z,Z) = beta(X,Z,Z)
@ B-freq = 0.000000  C-freq = 0.039733     beta(Y;Z,Z) = beta(Y,Z,Z)
@ B-freq = 0.000000  C-freq = 0.039733     beta(Z;Z,Z) = beta(Z,Z,Z)
@ B-freq = 0.019867  C-freq = 0.039733     beta(X;Z,Z) = beta(X,Z,Z)
@ B-freq = 0.019867  C-freq = 0.039733     beta(Y;Z,Z) = beta(Y,Z,Z)
@ B-freq = 0.019867  C-freq = 0.039733     beta(Z;Z,Z) = beta(Z,Z,Z)
@ B-freq = 0.039733  C-freq = 0.039733     beta(X;Z,Z) =     -0.00000000
@ B-freq = 0.039733  C-freq = 0.039733     beta(Y;Z,Z) =      0.00115358
@ B-freq = 0.039733  C-freq = 0.039733     beta(Z;Z,Z) =      8.13379649
@ B-freq = 0.059600  C-freq = 0.039733     beta(X;Z,Z) =     -0.00000000
@ B-freq = 0.059600  C-freq = 0.039733     beta(Y;Z,Z) =      0.00119999
@ B-freq = 0.059600  C-freq = 0.039733     beta(Z;Z,Z) =      8.41393122
@ B-freq = 0.079467  C-freq = 0.039733     beta(X;Z,Z) =     -0.00000000
@ B-freq = 0.079467  C-freq = 0.039733     beta(Y;Z,Z) =      0.00126437
@ B-freq = 0.079467  C-freq = 0.039733     beta(Z;Z,Z) =      8.79735100
@ B-freq = 0.000000  C-freq = 0.059600     beta(X;X,Z) = beta(X,Z,X)
@ B-freq = 0.000000  C-freq = 0.059600     beta(Y;X,Z) = beta(Y,Z,X)
@ B-freq = 0.000000  C-freq = 0.059600     beta(Z;X,Z) = beta(Z,Z,X)
@ B-freq = 0.019867  C-freq = 0.059600     beta(X;X,Z) = beta(X,Z,X)
@ B-freq = 0.019867  C-freq = 0.059600     beta(Y;X,Z) = beta(Y,Z,X)
@ B-freq = 0.019867  C-freq = 0.059600     beta(Z;X,Z) = beta(Z,Z,X)
@ B-freq = 0.039733  C-freq = 0.059600     beta(X;X,Z) = beta(X,Z,X)
@ B-freq = 0.039733  C-freq = 0.059600     beta(Y;X,Z) = beta(Y,Z,X)
@ B-freq = 0.039733  C-freq = 0.059600     beta(Z;X,Z) = beta(Z,Z,X)
@ B-freq = 0.059600  C-freq = 0.059600     beta(X;X,Z) = beta(X,Z,X)
@ B-freq = 0.059600  C-freq = 0.059600     beta(Y;X,Z) = beta(Y,Z,X)
@ B-freq = 0.059600  C-freq = 0.059600     beta(Z;X,Z) = beta(Z,Z,X)
@ B-freq = 0.079467  C-freq = 0.059600     beta(X;X,Z) = beta(X,Z,X)
@ B-freq = 0.079467  C-freq = 0.059600     beta(Y;X,Z) = beta(Y,Z,X)
@ B-freq = 0.079467  C-freq = 0.059600     beta(Z;X,Z) = beta(Z,Z,X)
@ B-freq = 0.000000  C-freq = 0.059600     beta(X;Y,Z) = beta(X,Z,Y)
@ B-freq = 0.000000  C-freq = 0.059600     beta(Y;Y,Z) = beta(Y,Z,Y)
@ B-freq = 0.000000  C-freq = 0.059600     beta(Z;Y,Z) = beta(Z,Z,Y)
@ B-freq = 0.019867  C-freq = 0.059600     beta(X;Y,Z) = beta(X,Z,Y)
@ B-freq = 0.019867  C-freq = 0.059600     beta(Y;Y,Z) = beta(Y,Z,Y)
@ B-freq = 0.019867  C-freq = 0.059600     beta(Z;Y,Z) = beta(Z,Z,Y)
@ B-freq = 0.039733  C-freq = 0.059600     beta(X;Y,Z) = beta(X,Z,Y)
@ B-freq = 0.039733  C-freq = 0.059600     beta(Y;Y,Z) = beta(Y,Z,Y)
@ B-freq = 0.039733  C-freq = 0.059600     beta(Z;Y,Z) = beta(Z,Z,Y)
@ B-freq = 0.059600  C-freq = 0.059600     beta(X;Y,Z) = beta(X,Z,Y)
@ B-freq = 0.059600  C-freq = 0.059600     beta(Y;Y,Z) = beta(Y,Z,Y)
@ B-freq = 0.059600  C-freq = 0.059600     beta(Z;Y,Z) = beta(Z,Z,Y)
@ B-freq = 0.079467  C-freq = 0.059600     beta(X;Y,Z) = beta(X,Z,Y)
@ B-freq = 0.079467  C-freq = 0.059600     beta(Y;Y,Z) = beta(Y,Z,Y)
@ B-freq = 0.079467  C-freq = 0.059600     beta(Z;Y,Z) = beta(Z,Z,Y)
@ B-freq = 0.000000  C-freq = 0.059600     beta(X;Z,Z) = beta(X,Z,Z)
@ B-freq = 0.000000  C-freq = 0.059600     beta(Y;Z,Z) = beta(Y,Z,Z)
@ B-freq = 0.000000  C-freq = 0.059600     beta(Z;Z,Z) = beta(Z,Z,Z)
@ B-freq = 0.019867  C-freq = 0.059600     beta(X;Z,Z) = beta(X,Z,Z)
@ B-freq = 0.019867  C-freq = 0.059600     beta(Y;Z,Z) = beta(Y,Z,Z)
@ B-freq = 0.019867  C-freq = 0.059600     beta(Z;Z,Z) = beta(Z,Z,Z)
@ B-freq = 0.039733  C-freq = 0.059600     beta(X;Z,Z) = beta(X,Z,Z)
@ B-freq = 0.039733  C-freq = 0.059600     beta(Y;Z,Z) = beta(Y,Z,Z)
@ B-freq = 0.039733  C-freq = 0.059600     beta(Z;Z,Z) = beta(Z,Z,Z)
@ B-freq = 0.059600  C-freq = 0.059600     beta(X;Z,Z) =     -0.00000000
@ B-freq = 0.059600  C-freq = 0.059600     beta(Y;Z,Z) =      0.00124915
@ B-freq = 0.059600  C-freq = 0.059600     beta(Z;Z,Z) =      8.75349965
@ B-freq = 0.079467  C-freq = 0.059600     beta(X;Z,Z) =     -0.00000000
@ B-freq = 0.079467  C-freq = 0.059600     beta(Y;Z,Z) =      0.00131502
@ B-freq = 0.079467  C-freq = 0.059600     beta(Z;Z,Z) =      9.20978644
@ B-freq = 0.000000  C-freq = 0.079467     beta(X;X,Z) = beta(X,Z,X)
@ B-freq = 0.000000  C-freq = 0.079467     beta(Y;X,Z) = beta(Y,Z,X)
@ B-freq = 0.000000  C-freq = 0.079467     beta(Z;X,Z) = beta(Z,Z,X)
@ B-freq = 0.019867  C-freq = 0.079467     beta(X;X,Z) = beta(X,Z,X)
@ B-freq = 0.019867  C-freq = 0.079467     beta(Y;X,Z) = beta(Y,Z,X)
@ B-freq = 0.019867  C-freq = 0.079467     beta(Z;X,Z) = beta(Z,Z,X)
@ B-freq = 0.039733  C-freq = 0.079467     beta(X;X,Z) = beta(X,Z,X)
@ B-freq = 0.039733  C-freq = 0.079467     beta(Y;X,Z) = beta(Y,Z,X)
@ B-freq = 0.039733  C-freq = 0.079467     beta(Z;X,Z) = beta(Z,Z,X)
@ B-freq = 0.059600  C-freq = 0.079467     beta(X;X,Z) = beta(X,Z,X)
@ B-freq = 0.059600  C-freq = 0.079467     beta(Y;X,Z) = beta(Y,Z,X)
@ B-freq = 0.059600  C-freq = 0.079467     beta(Z;X,Z) = beta(Z,Z,X)
@ B-freq = 0.079467  C-freq = 0.079467     beta(X;X,Z) = beta(X,Z,X)
@ B-freq = 0.079467  C-freq = 0.079467     beta(Y;X,Z) = beta(Y,Z,X)
@ B-freq = 0.079467  C-freq = 0.079467     beta(Z;X,Z) = beta(Z,Z,X)
@ B-freq = 0.000000  C-freq = 0.079467     beta(X;Y,Z) = beta(X,Z,Y)
@ B-freq = 0.000000  C-freq = 0.079467     beta(Y;Y,Z) = beta(Y,Z,Y)
@ B-freq = 0.000000  C-freq = 0.079467     beta(Z;Y,Z) = beta(Z,Z,Y)
@ B-freq = 0.019867  C-freq = 0.079467     beta(X;Y,Z) = beta(X,Z,Y)
@ B-freq = 0.019867  C-freq = 0.079467     beta(Y;Y,Z) = beta(Y,Z,Y)
@ B-freq = 0.019867  C-freq = 0.079467     beta(Z;Y,Z) = beta(Z,Z,Y)
@ B-freq = 0.039733  C-freq = 0.079467     beta(X;Y,Z) = beta(X,Z,Y)
@ B-freq = 0.039733  C-freq = 0.079467     beta(Y;Y,Z) = beta(Y,Z,Y)
@ B-freq = 0.039733  C-freq = 0.079467     beta(Z;Y,Z) = beta(Z,Z,Y)
@ B-freq = 0.059600  C-freq = 0.079467     beta(X;Y,Z) = beta(X,Z,Y)
@ B-freq = 0.059600  C-freq = 0.079467     beta(Y;Y,Z) = beta(Y,Z,Y)
@ B-freq = 0.059600  C-freq = 0.079467     beta(Z;Y,Z) = beta(Z,Z,Y)
@ B-freq = 0.079467  C-freq = 0.079467     beta(X;Y,Z) = beta(X,Z,Y)
@ B-freq = 0.079467  C-freq = 0.079467     beta(Y;Y,Z) = beta(Y,Z,Y)
@ B-freq = 0.079467  C-freq = 0.079467     beta(Z;Y,Z) = beta(Z,Z,Y)
@ B-freq = 0.000000  C-freq = 0.079467     beta(X;Z,Z) = beta(X,Z,Z)
@ B-freq = 0.000000  C-freq = 0.079467     beta(Y;Z,Z) = beta(Y,Z,Z)
@ B-freq = 0.000000  C-freq = 0.079467     beta(Z;Z,Z) = beta(Z,Z,Z)
@ B-freq = 0.019867  C-freq = 0.079467     beta(X;Z,Z) = beta(X,Z,Z)
@ B-freq = 0.019867  C-freq = 0.079467     beta(Y;Z,Z) = beta(Y,Z,Z)
@ B-freq = 0.019867  C-freq = 0.079467     beta(Z;Z,Z) = beta(Z,Z,Z)
@ B-freq = 0.039733  C-freq = 0.079467     beta(X;Z,Z) = beta(X,Z,Z)
@ B-freq = 0.039733  C-freq = 0.079467     beta(Y;Z,Z) = beta(Y,Z,Z)
@ B-freq = 0.039733  C-freq = 0.079467     beta(Z;Z,Z) = beta(Z,Z,Z)
@ B-freq = 0.059600  C-freq = 0.079467     beta(X;Z,Z) = beta(X,Z,Z)
@ B-freq = 0.059600  C-freq = 0.079467     beta(Y;Z,Z) = beta(Y,Z,Z)
@ B-freq = 0.059600  C-freq = 0.079467     beta(Z;Z,Z) = beta(Z,Z,Z)
@ B-freq = 0.079467  C-freq = 0.079467     beta(X;Z,Z) =     -0.00000000
@ B-freq = 0.079467  C-freq = 0.079467     beta(Y;Z,Z) =      0.00137997
@ B-freq = 0.079467  C-freq = 0.079467     beta(Z;Z,Z) =      9.75763802

  Total CPU  time used in RESPONSE:   3 hours  6 minutes 13 seconds
  Total wall time used in RESPONSE:   3 hours  6 minutes 31 seconds


                   .-------------------------------------------.
                   | End of Dynamic Property Section (RESPONS) |
                   `-------------------------------------------'



 PLTORB knows S,P,D,F,G shells. The basis set contains orbital(s) with higher angular momentum,
 and the writing of MOLPLT file is thus abandoned.

  Total CPU  time used in DALTON:   3 hours 16 minutes 14 seconds
  Total wall time used in DALTON:   3 hours 16 minutes 33 seconds

 
     Date and time (Linux)  : Thu Sep  7 21:32:22 2023
     Host name              : sn-mem                                  
