

     ************************************************************************
     *************** Dalton - An Electronic Structure Program ***************
     ************************************************************************

    This is output from DALTON release Dalton2020.0 (2020)
         ( Web site: http://daltonprogram.org )

   ----------------------------------------------------------------------------

    NOTE:
     
    Dalton is an experimental code for the evaluation of molecular
    properties using (MC)SCF, DFT, CI, and CC wave functions.
    The authors accept no responsibility for the performance of
    the code or for the correctness of the results.
     
    The code (in whole or part) is provided under a licence and
    is not to be reproduced for further distribution without
    the written permission of the authors or their representatives.
     
    See the home page "http://daltonprogram.org" for further information.
     
    If results obtained with this code are published,
    the appropriate citations would be both of:
     
       K. Aidas, C. Angeli, K. L. Bak, V. Bakken, R. Bast,
       L. Boman, O. Christiansen, R. Cimiraglia, S. Coriani,
       P. Dahle, E. K. Dalskov, U. Ekstroem,
       T. Enevoldsen, J. J. Eriksen, P. Ettenhuber, B. Fernandez,
       L. Ferrighi, H. Fliegl, L. Frediani, K. Hald, A. Halkier,
       C. Haettig, H. Heiberg, T. Helgaker, A. C. Hennum,
       H. Hettema, E. Hjertenaes, S. Hoest, I.-M. Hoeyvik,
       M. F. Iozzi, B. Jansik, H. J. Aa. Jensen, D. Jonsson,
       P. Joergensen, J. Kauczor, S. Kirpekar,
       T. Kjaergaard, W. Klopper, S. Knecht, R. Kobayashi, H. Koch,
       J. Kongsted, A. Krapp, K. Kristensen, A. Ligabue,
       O. B. Lutnaes, J. I. Melo, K. V. Mikkelsen, R. H. Myhre,
       C. Neiss, C. B. Nielsen, P. Norman, J. Olsen,
       J. M. H. Olsen, A. Osted, M. J. Packer, F. Pawlowski,
       T. B. Pedersen, P. F. Provasi, S. Reine, Z. Rinkevicius,
       T. A. Ruden, K. Ruud, V. Rybkin, P. Salek, C. C. M. Samson,
       A. Sanchez de Meras, T. Saue, S. P. A. Sauer,
       B. Schimmelpfennig, K. Sneskov, A. H. Steindal,
       K. O. Sylvester-Hvid, P. R. Taylor, A. M. Teale,
       E. I. Tellgren, D. P. Tew, A. J. Thorvaldsen, L. Thoegersen,
       O. Vahtras, M. A. Watson, D. J. D. Wilson, M. Ziolkowski
       and H. Agren,
       "The Dalton quantum chemistry program system",
       WIREs Comput. Mol. Sci. 2014, 4:269–284 (doi: 10.1002/wcms.1172)
     
    and
     
       Dalton, a molecular electronic structure program,
       Release Dalton2020.0 (2020), see http://daltonprogram.org
   ----------------------------------------------------------------------------

    Authors in alphabetical order (Major contribution(s) in parenthesis):

  Kestutis Aidas,           Vilnius University,           Lithuania   (QM/MM)
  Celestino Angeli,         University of Ferrara,        Italy       (NEVPT2)
  Keld L. Bak,              UNI-C,                        Denmark     (AOSOPPA, non-adiabatic coupling, magnetic properties)
  Vebjoern Bakken,          University of Oslo,           Norway      (DALTON; geometry optimizer, symmetry detection)
  Radovan Bast,             UiT The Arctic U. of Norway,  Norway      (DALTON installation and execution frameworks)
  Pablo Baudin,             University of Valencia,       Spain       (Cholesky excitation energies)
  Linus Boman,              NTNU,                         Norway      (Cholesky decomposition and subsystems)
  Bruno N. Cabral Tenorio,  Technical Univ. of Denmark,   Denmark     (Lanczos-based CC methods)
  Ove Christiansen,         Aarhus University,            Denmark     (CC module)
  Renzo Cimiraglia,         University of Ferrara,        Italy       (NEVPT2)
  Sonia Coriani,            Technical Univ. of Denmark,   Denmark     (CC and RESPONS modules)
  Janusz Cukras,            University of Warsaw,         Poland      (MChD in RESPONS)
  Paal Dahle,               University of Oslo,           Norway      (Parallelization)
  Erik K. Dalskov,          UNI-C,                        Denmark     (SOPPA)
  Thomas Enevoldsen,        Univ. of Southern Denmark,    Denmark     (SOPPA)
  Janus J. Eriksen,         Aarhus University,            Denmark     (Polarizable embedding, TDA)
  Rasmus Faber,             Technical Univ. of Denmark,   Denmark     (Vib.avg. NMR w. SOPPA, parallel AO-SOPPA, CVS-CC and EOMCC)
  Tobias Fahleson,          KTH Stockholm,                Sweden      (Damped cubic response)
  Berta Fernandez,          U. of Santiago de Compostela, Spain       (Doublet spin, ESR in RESPONS)
  Lara Ferrighi,            Aarhus University,            Denmark     (PCM Cubic response)
  Heike Fliegl,             University of Oslo,           Norway      (CCSD(R12))
  Luca Frediani,            UiT The Arctic U. of Norway,  Norway      (PCM)
  Emmanuel Fromager,        Univ. Strasbourg,             France      (MC-srDFT)
  Bin Gao,                  UiT The Arctic U. of Norway,  Norway      (Gen1Int library)
  Andre S. P. Gomes,        CNRS/Universite de Lille,     France      (Frozen density embedding)
  Christof Haettig,         Ruhr-University Bochum,       Germany     (CC module)
  Kasper Hald,              Aarhus University,            Denmark     (CC module)
  Asger Halkier,            Aarhus University,            Denmark     (CC module)
  Frederik Beyer Hansen,    University of Copenhagen,     Denmark     (Parallel AO-SOPPA)
  Erik D. Hedegaard,        Univ. of Southern Denmark,    Denmark     (Polarizable embedding, QM/MM, and MC-srDFT)
  Hanne Heiberg,            University of Oslo,           Norway      (Geometry analysis, selected one-electron integrals)
  Trygve Helgaker,          University of Oslo,           Norway      (DALTON; ABACUS, ERI, DFT modules, London, and much more)
  Alf Christian Hennum,     University of Oslo,           Norway      (Parity violation)
  Hinne Hettema,            University of Auckland,       New Zealand (Quadratic response in RESPONS; SIRIUS supersymmetry)
  Eirik Hjertenaes,         NTNU,                         Norway      (Cholesky decomposition)
  Pi A. B. Haase,           University of Copenhagen,     Denmark     (Triplet AO-SOPPA)
  Maria Francesca Iozzi,    University of Oslo,           Norway      (RPA)
  Christoph Jacob           TU Braunschweig               Germany     (Frozen density embedding)
  Brano Jansik              Technical Univ. of Ostrava    Czech Rep.  (DFT cubic response)
  Hans Joergen Aa. Jensen,  Univ. of Southern Denmark,    Denmark     (DALTON; SIRIUS, RESPONS, ABACUS, MC-srDFT, and much more)
  Dan Jonsson,              UiT The Arctic U. of Norway,  Norway      (Cubic response in RESPONS module)
  Poul Joergensen,          Aarhus University,            Denmark     (RESPONS, ABACUS, and CC modules)
  Maciej Kaminski,          University of Warsaw,         Poland      (CPPh in RESPONS)
  Joanna Kauczor,           Linkoeping University,        Sweden      (Complex polarization propagator (CPP) module)
  Sheela Kirpekar,          Univ. of Southern Denmark,    Denmark     (Mass-velocity & Darwin integrals)
  Erik Kjellgren,           Univ. of Southern Denmark,    Denmark     (MC-srDFT)
  Wim Klopper,              KIT Karlsruhe,                Germany     (R12 code in CC, SIRIUS, and ABACUS modules)
  Stefan Knecht,            ETH Zurich,                   Switzerland (Parallel CI and MCSCF, MC-srDFT)
  Rika Kobayashi,           Australian National Univ.,    Australia   (DIIS in CC, London in MCSCF)
  Henrik Koch,              NTNU,                         Norway      (CC module, Cholesky decomposition)
  Jacob Kongsted,           Univ. of Southern Denmark,    Denmark     (Polarizable embedding, polarizable density embedding, QM/MM)
  Andrea Ligabue,           University of Modena,         Italy       (CTOCD, AOSOPPA)
  Nanna H. List             Univ. of Southern Denmark,    Denmark     (Polarizable embedding)
  Ola B. Lutnaes,           University of Oslo,           Norway      (DFT Hessian)
  Juan I. Melo,             University of Buenos Aires,   Argentina   (LRESC, Relativistic Effects on NMR Shieldings)
  Kurt V. Mikkelsen,        University of Copenhagen,     Denmark     (MC-SCRF and QM/MM)
  Rolf H. Myhre,            NTNU,                         Norway      (Subsystems and CC3)
  Christian Neiss,          Univ. Erlangen-Nuernberg,     Germany     (CCSD(R12))
  Christian B. Nielsen,     University of Copenhagen,     Denmark     (QM/MM)
  Patrick Norman,           KTH Stockholm,                Sweden      (Cubic response and complex frequency response in RESPONS)
  Jeppe Olsen,              Aarhus University,            Denmark     (SIRIUS CI/density modules)
  Jogvan Magnus H. Olsen,   Aarhus University,            Denmark     (Polarizable embedding and polarizable density embedding)
  Anders Osted,             Copenhagen University,        Denmark     (QM/MM)
  Martin J. Packer,         University of Sheffield,      UK          (SOPPA)
  Filip Pawlowski,          Kazimierz Wielki University,  Poland      (CC3)
  Morten N. Pedersen,       Univ. of Southern Denmark,    Denmark     (Polarizable embedding)
  Thomas B. Pedersen,       University of Oslo,           Norway      (Cholesky decomposition)
  Patricio F. Provasi,      University of Northeastern,   Argentina   (Analysis of coupling constants in localized orbitals)
  Peter Reinholdt,          Univ. of Southern Denmark,    Denmark     (Polarizable embedding and polarizable density embedding)
  Zilvinas Rinkevicius,     KTH Stockholm,                Sweden      (open-shell DFT, ESR)
  Elias Rudberg,            KTH Stockholm,                Sweden      (DFT grid and basis info)
  Torgeir A. Ruden,         University of Oslo,           Norway      (Numerical derivatives in ABACUS)
  Kenneth Ruud,             UiT The Arctic U. of Norway,  Norway      (DALTON; ABACUS magnetic properties and much more)
  Pawel Salek,              KTH Stockholm,                Sweden      (DALTON; DFT code)
  Claire C. M. Samson       University of Karlsruhe       Germany     (Boys localization, r12 integrals in ERI)
  Alfredo Sanchez de Meras, University of Valencia,       Spain       (CC module, Cholesky decomposition)
  Trond Saue,               Paul Sabatier University,     France      (direct Fock matrix construction)
  Stephan P. A. Sauer,      University of Copenhagen,     Denmark     (SOPPA(CCSD), SOPPA prop., AOSOPPA, vibrational g-factors)
  Bernd Schimmelpfennig,    Forschungszentrum Karlsruhe,  Germany     (AMFI module)
  Anna K. Schnack-Petersen, University of Copenhagen,     Denmark     (RPA(D) and HRPA(D) properties in AOSOPPA)
  Kristian Sneskov,         Aarhus University,            Denmark     (Polarizable embedding, QM/MM)
  Arnfinn H. Steindal,      UiT The Arctic U. of Norway,  Norway      (parallel QM/MM, polarizable embedding)
  Casper Steinmann,         Aalborg University,           Denmark     (QFIT, polarizable embedding)
  K. O. Sylvester-Hvid,     University of Copenhagen,     Denmark     (MC-SCRF)
  Peter R. Taylor,          VLSCI/Univ. of Melbourne,     Australia   (Symmetry handling ABACUS, integral transformation)
  Andrew M. Teale,          University of Nottingham,     England     (DFT-AC, DFT-D)
  David P. Tew,             University of Bristol,        England     (CCSD(R12))
  Julien Toulouse,          Sorbonne Univ.,               France      (MC-srDFT)
  Olav Vahtras,             KTH Stockholm,                Sweden      (Triplet response, spin-orbit, ESR, TDDFT, open-shell DFT)
  Lucas Visscher,           Vrije Universiteit Amsterdam, Netherlands (Frozen density embedding)
  David J. Wilson,          La Trobe University,          Australia   (DFT Hessian and DFT magnetizabilities)
  Hans Agren,               KTH Stockholm,                Sweden      (SIRIUS module, RESPONS, MC-SCRF solvation)
 --------------------------------------------------------------------------------

     Date and time (Linux)  : Thu Dec 11 09:31:00 2025
     Host name              : xm061                                   

 * Work memory size             :  1310720000 =  9.766 gigabytes.

 * Directories for basis set searches:
   1) /gpfs/projects/rjh/adrian/summer2025/RamanDB/RamanBenchDB/H2O/dalton
   2) /gpfs/projects/rjh/adrian/dalton/build/basis


Compilation information
-----------------------

 Who compiled             | ahurtado
 Host                     | milan2
 System                   | Linux-5.14.0-427.42.1.el9_4.x86_64
 CMake generator          | Unix Makefiles
 Processor                | x86_64
 64-bit integers          | OFF
 MPI                      | ON
 Fortran compiler         | /gpfs/software/openmpi/milan/gcc13.2/4.1.6/bin/mpi
                          | f90
 Fortran compiler version | GNU Fortran (GCC) 13.2.0
 C compiler               | /gpfs/software/openmpi/milan/gcc13.2/4.1.6/bin/mpi
                          | cc
 C compiler version       | gcc (GCC) 13.2.0
 C++ compiler             | /gpfs/software/openmpi/milan/gcc13.2/4.1.6/bin/mpi
                          | cxx
 C++ compiler version     | unknown
 BLAS                     | /gpfs/software/intel/oneAPI/2024_2/mkl/2024.2/lib/
                          | intel64/libmkl_gf_lp64.so;/gpfs/software/intel/one
                          | API/2024_2/mkl/2024.2/lib/intel64/libmkl_sequentia
                          | l.so;/gpfs/software/intel/oneAPI/2024_2/mkl/2024.2
                          | /lib/intel64/libmkl_core.so;/usr/lib64/libpthread.
                          | a;/usr/lib64/libm.so
 LAPACK                   | /gpfs/software/intel/oneAPI/2024_2/mkl/2024.2/lib/
                          | intel64/libmkl_lapack95_lp64.a;/gpfs/software/inte
                          | l/oneAPI/2024_2/mkl/2024.2/lib/intel64/libmkl_gf_l
                          | p64.so
 Static linking           | OFF
 Last Git revision        | 66052b3af5ea7225e31178bf9a8b031913c72190
 Git branch               | (HEAD detached at Dalton2020.0)
 Configuration time       | 2025-04-10 16:02:31.569498

 * MPI parallel run using 576 processes.


   Content of the .dal input file
 ----------------------------------

**DALTON INPUT
.OPTIMIZE
**OPTIMIZE
.2NDORD
**WAVE FUNCTIONS
.HF
*SCF INPUT
.THRESH
1.0D-8
**PROPERTIES
.VIBANA
.SHIELD
**VIBANA
.PRINT
100
**END OF DALTON INPUT


   Content of the .mol file
 ----------------------------

BASIS
d-aug-cc-pVTZ
blah
blah
Atomtype=2 Angstrom Charge=0
Charge=8 Atoms=1
O_a 0.000000000000 0.000000000000 0.221664870000
Charge=1 Atoms=2
H_a 0.000000000000 1.430900620000 -0.886659500000
H_b 0.000000000000 -1.430900620000 -0.886659500000


       *******************************************************************
       *********** Output from DALTON general input processing ***********
       *******************************************************************

 --------------------------------------------------------------------------------
   Overall default print level:    0
   Print level for DALTON.STAT:    1

    Parallel calculation using MPI
    AO-direct calculation (in sections where implemented)
    "Old" integral transformation used (limited to max 255 basis functions)
 --------------------------------------------------------------------------------


 Chosen parameters for *OPTIMI :
 -------------------------------

 Default 1st order method will be used:   BFGS update.
 Optimization will be performed in redundant internal coordinates (by default).
 Model Hessian will be used as initial Hessian.
 The model Hessian parameters of Roland Lindh will be used.


 Trust region method will be used to control step (default).

 Convergence threshold for gradient set to :      1.00D-04
 Convergence threshold for energy set to   :      1.00D-06
 Convergence threshold for step set to     :      1.00D-04
 Number of convergence criteria set to     :   2


              >>>>>>>>>>>>>>>>>>>>>>>>>>>>>>>>>>>>>>>>>>>>>>>>>>>>>
              >>>>>>>>>> 1st Order Geometry Optimization >>>>>>>>>>
              >>>>>>>>>>>>>>>>>>>>>>>>>>>>>>>>>>>>>>>>>>>>>>>>>>>>>


 Reading .mol file to determine number of atoms for parallel runs.


                      SYMADD: Requested addition of symmetry
                      --------------------------------------

 Symmetry test threshold:  5.00E-06

@   The molecule is centered at center of mass and rotated
@   so principal axes of inertia are along coordinate axes.

 Symmetry class found: C(2v)          

 The following symmetry elements were found:   X  Y     


   ****************************************************************************
   *************** Output of molecule and basis set information ***************
   ****************************************************************************


    The two title cards from your ".mol" input:
    ------------------------------------------------------------------------
 1: blah                                                                    
 2: blah                                                                    
    ------------------------------------------------------------------------

  Coordinates are entered in Angstrom and converted to atomic units.
          - Conversion factor : 1 bohr = 0.52917721 A

  Atomic type no.    1
  --------------------
  Nuclear charge:   8.00000
  Number of symmetry independent centers:    1
  Number of basis sets to read;    2
  Basis set file used for this atomic type with Z =   8 :
     "/gpfs/projects/rjh/adrian/dalton/build/basis/aug-cc-pVTZ"

  Atomic type no.    2
  --------------------
  Nuclear charge:   1.00000
  Number of symmetry independent centers:    2
  Number of basis sets to read;    2
  Basis set file used for this atomic type with Z =   1 :
     "/gpfs/projects/rjh/adrian/dalton/build/basis/aug-cc-pVTZ"


                      SYMADD: Requested addition of symmetry
                      --------------------------------------

 Symmetry test threshold:  5.00E-06

@   The molecule is centered at center of mass and rotated
@   so principal axes of inertia are along coordinate axes.

 Symmetry class found: C(2v)          

 Symmetry Independent Centres             
 ----------------------------
O_a    8 :      0.00000000     0.00000000    -0.23439780  Isotope  1
H_a    1 :      0.00000000     2.70401028     1.86003171  Isotope  1

 The following symmetry elements were found:   X  Y     


                         SYMGRP: Point group information
                         -------------------------------

@    Full point group is: C(2v)          
@    Represented as:      C2v

@  * The irrep name for each symmetry:    1: A1     2: B1     3: B2     4: A2 

   * The point group was generated by:

      Reflection in the yz-plane
      Reflection in the xz-plane

   * Group multiplication table

        |  E   C2z  Oxz  Oyz
   -----+--------------------
     E  |  E   C2z  Oxz  Oyz
    C2z | C2z   E   Oyz  Oxz
    Oxz | Oxz  Oyz   E   C2z
    Oyz | Oyz  Oxz  C2z   E 

   * Character table

        |  E   C2z  Oxz  Oyz
   -----+--------------------
    A1  |   1    1    1    1
    B1  |   1   -1    1   -1
    B2  |   1   -1   -1    1
    A2  |   1    1   -1   -1

   * Direct product table

        | A1   B1   B2   A2 
   -----+--------------------
    A1  | A1   B1   B2   A2 
    B1  | B1   A1   A2   B2 
    B2  | B2   A2   A1   B1 
    A2  | A2   B2   B1   A1 


                                 Isotopic Masses
                                 ---------------

                           O_a        15.994915
                           H_a _1      1.007825
                           H_a _2      1.007825

                       Total mass:    18.010565 amu
                       Natural abundance:  99.730 %

 Center-of-mass coordinates (a.u.):    0.000000    0.000000    0.000000
 Center-of-mass coordinates (Angs):    0.000000    0.000000    0.000000


  Atoms and basis sets
  --------------------

  Number of atom types :    2
  Total number of atoms:    3

  Basis set used is "d-aug-cc-pVTZ" from the basis set library.

  label    atoms   charge   prim   cont     basis
  ----------------------------------------------------------------------
  O_          1    8.0000    74    62      [12s7p4d3f|6s5p4d3f]                               
  H_          2    1.0000    34    32      [7s4p3d|5s4p3d]                                    
  ----------------------------------------------------------------------
  total:      3   10.0000   142   126
  ----------------------------------------------------------------------
  Spherical harmonic basis used.

  Threshold for neglecting AO integrals:  1.00D-12


  Cartesian Coordinates (a.u.)
  ----------------------------

  Total number of coordinates:    9
  O_a     :     1  x   0.0000000000    2  y   0.0000000000    3  z  -0.2343978024
  H_a / 1 :     4  x   0.0000000000    5  y   2.7040102839    6  z   1.8600317146
  H_a / 2 :     7  x   0.0000000000    8  y  -2.7040102839    9  z   1.8600317146


  Symmetry Coordinates
  --------------------

  Number of coordinates in each symmetry:     3    2    3    1

  Symmetry  A1  ( 1)

    1   O_a   z    3
    2   H_a   y    [  5  -    8 ]/2
    3   H_a   z    [  6  +    9 ]/2

  Symmetry  B1  ( 2)

    4   O_a   x    1
    5   H_a   x    [  4  +    7 ]/2

  Symmetry  B2  ( 3)

    6   O_a   y    2
    7   H_a   y    [  5  +    8 ]/2
    8   H_a   z    [  6  -    9 ]/2

  Symmetry  A2  ( 4)

    9   H_a   x    [  4  -    7 ]/2


   Interatomic separations (in Angstrom):
   --------------------------------------

            O_a         H_a _1      H_a _2
            ------      ------      ------
 O_a   :    0.000000
 H_a _1:    1.809934    0.000000
 H_a _2:    1.809934    2.861801    0.000000


  Max    interatomic separation is    2.8618 Angstrom (    5.4080 Bohr)
  between atoms    3 and    2, "H_a _2" and "H_a _1".

  Min HX interatomic separation is    1.8099 Angstrom (    3.4203 Bohr)


  Bond distances (Angstrom):
  --------------------------

                  atom 1     atom 2       distance
                  ------     ------       --------


  Bond angles (degrees):
  ----------------------

                  atom 1     atom 2     atom 3         angle
                  ------     ------     ------         -----
     No angles found




@ WARNING:  No bonds -  no atom pairs are within normal bonding distances
@ WARNING:  maybe coordinates were in Bohr, but Dalton were told they were in Angstrom ?



 Principal moments of inertia (u*A**2) and principal axes
 --------------------------------------------------------

   IA       2.198890          0.000000    1.000000    0.000000
   IB       4.126996          0.000000    0.000000    1.000000
   IC       6.325886          1.000000    0.000000    0.000000


 Rotational constants
 --------------------

@    The molecule is planar.

               A                   B                   C

         229833.7003         122456.8631          79890.6270 MHz
            7.666427            4.084721            2.664864 cm-1


@  Nuclear repulsion energy :    4.862891851782 Hartree


  Symmetry Orbitals
  -----------------

  Number of orbitals in each symmetry:          47   25   37   17


  Symmetry  A1 ( 1)

    1     O_a      1s         1
    2     O_a      1s         2
    3     O_a      1s         3
    4     O_a      1s         4
    5     O_a      1s         5
    6     O_a      1s         6
    7     O_a      2pz        9
    8     O_a      2pz       12
    9     O_a      2pz       15
   10     O_a      2pz       18
   11     O_a      2pz       21
   12     O_a      3d0       24
   13     O_a      3d2+      26
   14     O_a      3d0       29
   15     O_a      3d2+      31
   16     O_a      3d0       34
   17     O_a      3d2+      36
   18     O_a      3d0       39
   19     O_a      3d2+      41
   20     O_a      4f0       45
   21     O_a      4f2+      47
   22     O_a      4f0       52
   23     O_a      4f2+      54
   24     O_a      4f0       59
   25     O_a      4f2+      61
   26     H_a      1s        63 +   64
   27     H_a      1s        65 +   66
   28     H_a      1s        67 +   68
   29     H_a      1s        69 +   70
   30     H_a      1s        71 +   72
   31     H_a      2py       75 -   76
   32     H_a      2pz       77 +   78
   33     H_a      2py       81 -   82
   34     H_a      2pz       83 +   84
   35     H_a      2py       87 -   88
   36     H_a      2pz       89 +   90
   37     H_a      2py       93 -   94
   38     H_a      2pz       95 +   96
   39     H_a      3d1-      99 -  100
   40     H_a      3d0      101 +  102
   41     H_a      3d2+     105 +  106
   42     H_a      3d1-     109 -  110
   43     H_a      3d0      111 +  112
   44     H_a      3d2+     115 +  116
   45     H_a      3d1-     119 -  120
   46     H_a      3d0      121 +  122
   47     H_a      3d2+     125 +  126


  Symmetry  B1 ( 2)

   48     O_a      2px        7
   49     O_a      2px       10
   50     O_a      2px       13
   51     O_a      2px       16
   52     O_a      2px       19
   53     O_a      3d1+      25
   54     O_a      3d1+      30
   55     O_a      3d1+      35
   56     O_a      3d1+      40
   57     O_a      4f1+      46
   58     O_a      4f3+      48
   59     O_a      4f1+      53
   60     O_a      4f3+      55
   61     O_a      4f1+      60
   62     O_a      4f3+      62
   63     H_a      2px       73 +   74
   64     H_a      2px       79 +   80
   65     H_a      2px       85 +   86
   66     H_a      2px       91 +   92
   67     H_a      3d2-      97 -   98
   68     H_a      3d1+     103 +  104
   69     H_a      3d2-     107 -  108
   70     H_a      3d1+     113 +  114
   71     H_a      3d2-     117 -  118
   72     H_a      3d1+     123 +  124


  Symmetry  B2 ( 3)

   73     O_a      2py        8
   74     O_a      2py       11
   75     O_a      2py       14
   76     O_a      2py       17
   77     O_a      2py       20
   78     O_a      3d1-      23
   79     O_a      3d1-      28
   80     O_a      3d1-      33
   81     O_a      3d1-      38
   82     O_a      4f3-      42
   83     O_a      4f1-      44
   84     O_a      4f3-      49
   85     O_a      4f1-      51
   86     O_a      4f3-      56
   87     O_a      4f1-      58
   88     H_a      1s        63 -   64
   89     H_a      1s        65 -   66
   90     H_a      1s        67 -   68
   91     H_a      1s        69 -   70
   92     H_a      1s        71 -   72
   93     H_a      2py       75 +   76
   94     H_a      2pz       77 -   78
   95     H_a      2py       81 +   82
   96     H_a      2pz       83 -   84
   97     H_a      2py       87 +   88
   98     H_a      2pz       89 -   90
   99     H_a      2py       93 +   94
  100     H_a      2pz       95 -   96
  101     H_a      3d1-      99 +  100
  102     H_a      3d0      101 -  102
  103     H_a      3d2+     105 -  106
  104     H_a      3d1-     109 +  110
  105     H_a      3d0      111 -  112
  106     H_a      3d2+     115 -  116
  107     H_a      3d1-     119 +  120
  108     H_a      3d0      121 -  122
  109     H_a      3d2+     125 -  126


  Symmetry  A2 ( 4)

  110     O_a      3d2-      22
  111     O_a      3d2-      27
  112     O_a      3d2-      32
  113     O_a      3d2-      37
  114     O_a      4f2-      43
  115     O_a      4f2-      50
  116     O_a      4f2-      57
  117     H_a      2px       73 -   74
  118     H_a      2px       79 -   80
  119     H_a      2px       85 -   86
  120     H_a      2px       91 -   92
  121     H_a      3d2-      97 +   98
  122     H_a      3d1+     103 -  104
  123     H_a      3d2-     107 +  108
  124     H_a      3d1+     113 -  114
  125     H_a      3d2-     117 +  118
  126     H_a      3d1+     123 -  124

  Symmetries of electric field:  B1 (2)  B2 (3)  A1 (1)

  Symmetries of magnetic field:  B2 (3)  B1 (2)  A2 (4)


                     .---------------------------------------.
                     | Starting in Integral Section (HERMIT) |
                     `---------------------------------------'



 ***************************************************************************************
 ****************** Output from **INTEGRALS input processing (HERMIT) ******************
 ***************************************************************************************


 - Using defaults, no **INTEGRALS input found

 Default print level:        1

 Calculation of one-electron Hamiltonian integrals.

 Center of mass  (bohr):      0.000000000000      0.000000000000      0.000000000000
 Operator center (bohr):      0.000000000000      0.000000000000      0.000000000000
 Gauge origin    (bohr):      0.000000000000      0.000000000000      0.000000000000
 Dipole origin   (bohr):      0.000000000000      0.000000000000      0.000000000000


     ************************************************************************
     ************************** Output from HERINT **************************
     ************************************************************************



                      Nuclear contribution to dipole moments
                      --------------------------------------

                 au               Debye          C m (/(10**-30)

      z      1.84488101         4.68921950        15.64155258


  Total CPU  time used in HERMIT:   0.08 seconds
  Total wall time used in HERMIT:   0.11 seconds


                        .----------------------------------.
                        | End of Integral Section (HERMIT) |
                        `----------------------------------'



                   .--------------------------------------------.
                   | Starting in Wave Function Section (SIRIUS) |
                   `--------------------------------------------'


 *** Output from Huckel module :

     Using EWMO model:          F
     Using EHT  model:          T
     Number of Huckel orbitals each symmetry:    4    1    2    0

 Huckel EHT eigenvalues for symmetry :  1
          -20.681789      -1.279018      -0.654269      -0.455895

 Huckel EHT eigenvalues for symmetry :  2
           -0.616200

 Huckel EHT eigenvalues for symmetry :  3
           -0.670897      -0.421832

 **********************************************************************
 *SIRIUS* a direct, restricted step, second order MCSCF program       *
 **********************************************************************

 
     Date and time (Linux)  : Thu Dec 11 09:31:02 2025
     Host name              : xm061                                   

 Title lines from ".mol" input file:
     blah                                                                    
     blah                                                                    

 Print level on unit LUPRI =   2 is   0
 Print level on unit LUW4  =   2 is   5

@    Restricted, closed shell Hartree-Fock calculation.
 Fock matrices are calculated directly and in parallel without use of integrals on disk.

 Initial molecular orbitals are obtained according to
 ".MOSTART EHT   " input option

     Wave function specification
     ============================
@    Wave function type        --- HF ---
@    Number of closed shell electrons          10
@    Number of electrons in active shells       0
@    Total charge of the molecule               0

@    Spin multiplicity and 2 M_S                1         0
@    Total number of symmetries                 4 (point group: C2v)
@    Reference state symmetry                   1 (irrep name : A1 )

     Orbital specifications
     ======================
@    Abelian symmetry species          All |    1    2    3    4
@                                          |  A1   B1   B2   A2 
                                       --- |  ---  ---  ---  ---
@    Total number of orbitals          126 |   47   25   37   17
@    Number of basis functions         126 |   47   25   37   17

      ** Automatic occupation of RHF orbitals **

      -- Initial occupation of symmetries is determined from extended Huckel guess.           
      -- Initial occupation of symmetries is :
@    Occupied SCF orbitals               5 |    3    1    1    0

     Maximum number of Fock   iterations      0
     Maximum number of DIIS   iterations     60
     Maximum number of QC-SCF iterations     60
     Threshold for SCF convergence     1.00D-08


 ***********************************************
 ***** DIIS acceleration of SCF iterations *****
 ***********************************************

 C1-DIIS algorithm; max error vectors =    8

 Automatic occupation of symmetries with  10 electrons.

 Iter     Total energy    Error norm  Delta(E)    SCF occupation
 -----------------------------------------------------------------------------
   1  Screening settings (-IFTHRS, JTDIIS, DIFDEN, times)   -7    1    T  5.04D+00  5.08D+00
@  1  -75.5343646016       1.65D+00  -7.55D+01     3   1   1   0
      Virial theorem: -V/T =      1.981915
@    MULPOP   O_a    -0.73; H_a _1  0.37; H_a _2  0.37; 
   1  Level shift: doubly occupied orbital energies shifted by -2.00D-01
 -----------------------------------------------------------------------------
   2  Screening settings (-IFTHRS, JTDIIS, DIFDEN, times)   -7    2    T  1.39D-01  1.39D-01
@  2  -75.5909971211       1.30D+00  -5.66D-02     3   1   1   0
      Virial theorem: -V/T =      2.036640
@    MULPOP   O_a    -0.30; H_a _1  0.15; H_a _2  0.15; 
   2  Level shift: doubly occupied orbital energies shifted by -2.00D-01
 -----------------------------------------------------------------------------
   3  Screening settings (-IFTHRS, JTDIIS, DIFDEN, times)   -7    3    T  1.22D-01  1.22D-01
@  3  -75.6681994337       1.86D-01  -7.72D-02     3   1   1   0
      Virial theorem: -V/T =      2.013241
@    MULPOP   O_a    -0.58; H_a _1  0.29; H_a _2  0.29; 
   3  Level shift: doubly occupied orbital energies shifted by -5.00D-02
 -----------------------------------------------------------------------------
   4  Screening settings (-IFTHRS, JTDIIS, DIFDEN, times)   -9    4    F  1.22D-01  1.23D-01
@  4  -75.6708520440       3.42D-02  -2.65D-03     3   1   1   0
      Virial theorem: -V/T =      2.010576
@    MULPOP   O_a    -0.63; H_a _1  0.31; H_a _2  0.31; 
   4  Level shift: doubly occupied orbital energies shifted by -1.25D-02
 -----------------------------------------------------------------------------
   5  Screening settings (-IFTHRS, JTDIIS, DIFDEN, times)   -9    5    T  1.23D-01  1.24D-01
@  5  -75.6710670620       1.94D-02  -2.15D-04     3   1   1   0
      Virial theorem: -V/T =      2.010658
@    MULPOP   O_a    -0.62; H_a _1  0.31; H_a _2  0.31; 
   5  Level shift: doubly occupied orbital energies shifted by -1.25D-02
 -----------------------------------------------------------------------------
   6  Screening settings (-IFTHRS, JTDIIS, DIFDEN, times)   -9    6    T  1.20D-01  1.21D-01
@  6  -75.6711088184       3.65D-03  -4.18D-05     3   1   1   0
      Virial theorem: -V/T =      2.010309
@    MULPOP   O_a    -0.61; H_a _1  0.31; H_a _2  0.31; 
 -----------------------------------------------------------------------------
   7  Screening settings (-IFTHRS, JTDIIS, DIFDEN, times)  -11    7    F  1.21D-01  1.22D-01
@  7  -75.6711142829       1.96D-03  -5.46D-06     3   1   1   0
      Virial theorem: -V/T =      2.010285
@    MULPOP   O_a    -0.61; H_a _1  0.31; H_a _2  0.31; 
 -----------------------------------------------------------------------------
   8  Screening settings (-IFTHRS, JTDIIS, DIFDEN, times)  -11    8    T  1.23D-01  1.23D-01
@  8  -75.6711172848       1.34D-03  -3.00D-06     3   1   1   0
      Virial theorem: -V/T =      2.010286
@    MULPOP   O_a    -0.61; H_a _1  0.31; H_a _2  0.31; 
 -----------------------------------------------------------------------------
   9  Screening settings (-IFTHRS, JTDIIS, DIFDEN, times)  -11    9    T  1.19D-01  1.20D-01
@  9  -75.6711197810       3.14D-04  -2.50D-06     3   1   1   0
      Virial theorem: -V/T =      2.010278
@    MULPOP   O_a    -0.61; H_a _1  0.31; H_a _2  0.31; 
 -----------------------------------------------------------------------------
  10  Screening settings (-IFTHRS, JTDIIS, DIFDEN, times)  -14   10    F  1.28D-01  1.28D-01
@ 10  -75.6711198664       5.98D-05  -8.54D-08     3   1   1   0
      Virial theorem: -V/T =      2.010281
@    MULPOP   O_a    -0.61; H_a _1  0.31; H_a _2  0.31; 
 -----------------------------------------------------------------------------
  11  Screening settings (-IFTHRS, JTDIIS, DIFDEN, times)  -14   11    T  1.20D-01  1.20D-01
@ 11  -75.6711198669       5.47D-06  -4.86D-10     3   1   1   0
      Virial theorem: -V/T =      2.010280
@    MULPOP   O_a    -0.61; H_a _1  0.31; H_a _2  0.31; 
 -----------------------------------------------------------------------------
  12  Screening settings (-IFTHRS, JTDIIS, DIFDEN, times)  -14   12    T  1.25D-01  1.26D-01
@ 12  -75.6711198669       5.84D-07  -4.04D-12     3   1   1   0
      Virial theorem: -V/T =      2.010280
@    MULPOP   O_a    -0.61; H_a _1  0.31; H_a _2  0.31; 
 -----------------------------------------------------------------------------
  13  Screening settings (-IFTHRS, JTDIIS, DIFDEN, times)  -14   13    T  1.19D-01  1.19D-01
@ 13  -75.6711198669       9.92D-08  -2.84D-14     3   1   1   0
      Virial theorem: -V/T =      2.010280
@    MULPOP   O_a    -0.61; H_a _1  0.31; H_a _2  0.31; 
 -----------------------------------------------------------------------------
  14  Screening settings (-IFTHRS, JTDIIS, DIFDEN, times)  -14   14    T  1.21D-01  1.22D-01
@ 14  -75.6711198669       1.51D-08   0.00D+00     3   1   1   0
      Virial theorem: -V/T =      2.010280
@    MULPOP   O_a    -0.61; H_a _1  0.31; H_a _2  0.31; 
 -----------------------------------------------------------------------------
  15  Screening settings (-IFTHRS, JTDIIS, DIFDEN, times)  -14   15    T  1.19D-01  1.19D-01
@ 15  -75.6711198669       5.27D-09  -1.42D-14     3   1   1   0

@ *** DIIS converged in  15 iterations !
@     Converged SCF energy, gradient:    -75.671119866862    5.27D-09
    - total time used in SIRFCK :              0.00 seconds


 *** SCF orbital energy analysis ***

 Only the 20 lowest virtual orbital energies printed in each symmetry.

 Number of electrons :   10
 Orbital occupations :    3    1    1    0

 Sym       Hartree-Fock orbital energies

1 A1    -20.65750034    -1.20358589    -0.44051443    -0.03320734     0.01307924
          0.03427135     0.07010841     0.07270769     0.08771175     0.13964113
          0.18519320     0.20870001     0.22886882     0.25981906     0.29665612
          0.30900122     0.41662454     0.43686504     0.47427722     0.69754985
          0.79716450     0.82610262     0.88270977

2 B1     -0.50836198     0.04144628     0.08109785     0.19909719     0.21548333
          0.23771535     0.29834463     0.44221983     0.77583977     0.85779275
          0.91399362     0.93649336     1.09175988     1.11294182     1.47735113
          2.35308509     2.46990307     2.51260061     3.88755892     3.96824488
          4.18335390

3 B2     -0.45530473    -0.00018727     0.01497034     0.05213477     0.07984552
          0.09439433     0.13364790     0.21893728     0.23049906     0.25019225
          0.30732259     0.34733471     0.45054498     0.49327781     0.74723593
          0.87054532     0.88931925     0.94791913     1.04138697     1.11356044
          1.17531278

4 A2      0.07462525     0.20106857     0.23302916     0.32488378     0.43374017
          0.82232818     0.94647819     0.98891595     1.07796178     1.44294942
          2.38480743     2.52401721     3.88478077     4.02832161     4.21556213
          6.81678750     7.14705553

    E(LUMO) :    -0.03320734 au (symmetry 1)
  - E(HOMO) :    -0.44051443 au (symmetry 1)
  ------------------------------------------
    gap     :     0.40730709 au

 --- Writing SIRIFC interface file

 CPU and wall time for SCF :       6.813       6.872


                       .-----------------------------------.
                       | --- Final results from SIRIUS --- |
                       `-----------------------------------'


@    Spin multiplicity:           1
@    Spatial symmetry:            1 ( irrep  A1  in C2v )
@    Total charge of molecule:    0

@    Final HF energy:             -75.671119866862                 
@    Nuclear repulsion:             4.862891851782
@    Electronic energy:           -80.534011718645

@    Final gradient norm:           0.000000005269

 
     Date and time (Linux)  : Thu Dec 11 09:31:09 2025
     Host name              : xm061                                   

File label for MO orbitals:  11Dec25   FOCKDIIS

 (Only coefficients > 0.0100 are printed.)

 Molecular orbitals for symmetry species 1  (A1 )
 ------------------------------------------------

    Orbital         1        2        3        4        5        6        7
   1 O_a :1s     0.9993  -0.0038  -0.0058  -0.0023   0.0011   0.0016  -0.0004
   2 O_a :1s    -0.0028   0.9722  -0.1553  -0.1602   0.0418   0.0367   0.0015
   4 O_a :1s     0.0043   0.0011  -0.0252  -0.0501   0.0244  -0.0360   0.0214
   5 O_a :1s     0.0034   0.0067   0.0173  -0.0283  -0.3614   1.6467   0.0338
   6 O_a :1s     0.0027  -0.0082   0.0741  -0.0531  -2.9980  10.9531  -3.4741
   7 O_a :2pz    0.0031  -0.0136   0.6847  -0.5017   0.1229   0.0098  -0.0006
   8 O_a :2pz   -0.0025   0.0037   0.0017  -0.0011   0.0013  -0.0130   0.0012
   9 O_a :2pz    0.0010   0.0081   0.0568  -0.0600   0.0070   0.0907   0.0025
  10 O_a :2pz    0.0004  -0.0074   0.0584  -0.1077  -0.1842   0.7064   1.0732
  11 O_a :2pz    0.0002  -0.0011   0.0065  -0.0301  -0.1547   2.8027   1.0195
  16 O_a :3d0    0.0000  -0.0008   0.0104  -0.0030  -0.0043  -0.0011  -0.0022
  17 O_a :3d2+  -0.0008  -0.0015  -0.0105  -0.0084   0.0120  -0.0346  -0.0045
  18 O_a :3d0   -0.0002  -0.0014   0.0024   0.0013  -0.0007   0.0538   0.6685
  19 O_a :3d2+  -0.0001   0.0014  -0.0035  -0.0100   0.0257  -0.0671   0.4552
  24 O_a :4f0   -0.0001  -0.0004   0.0009  -0.0009   0.0019  -0.0048   0.0660
  25 O_a :4f2+  -0.0001  -0.0002  -0.0044  -0.0001   0.0073  -0.0093   0.0280
  26 H_a :1s     0.0005   0.0588   0.3589   0.3719  -0.1127  -0.0526   0.0289
  27 H_a :1s    -0.0006  -0.0044  -0.0153  -0.0184  -0.0071   0.0077   0.0267
  28 H_a :1s    -0.0021  -0.0089   0.0017   0.0990   0.0877  -0.4066   0.0240
  29 H_a :1s    -0.0017   0.0037  -0.0334   0.2468   1.0145  -5.8716   1.5716
  30 H_a :1s    -0.0000   0.0001  -0.0014   0.0417   0.8255  -0.2019   0.1098
  33 H_a :2py    0.0005  -0.0053  -0.0099   0.0177  -0.0070   0.0020  -0.0037
  35 H_a :2py    0.0009  -0.0027  -0.0084   0.0586  -0.0621   0.2487   0.2651
  36 H_a :2pz    0.0010   0.0000   0.0010   0.0385  -0.0379   0.1696  -0.2989
  37 H_a :2py    0.0004  -0.0003   0.0088   0.0435  -0.3871   1.1553   0.5882
  38 H_a :2pz    0.0004   0.0001   0.0075   0.0331  -0.3418   0.8355  -1.4370
  42 H_a :3d1-  -0.0004   0.0006   0.0016  -0.0027   0.0021  -0.0182   0.0080
  43 H_a :3d0   -0.0001  -0.0003  -0.0001   0.0007  -0.0008  -0.0045   0.0149
  44 H_a :3d2+   0.0002  -0.0008  -0.0014   0.0011  -0.0003   0.0150   0.0201
  45 H_a :3d1-  -0.0003  -0.0008  -0.0017  -0.0050   0.0369  -0.1188   0.0686
  46 H_a :3d0   -0.0001  -0.0004  -0.0010   0.0014   0.0003   0.0326   0.3413
  47 H_a :3d2+   0.0001   0.0003   0.0001  -0.0000  -0.0370   0.0668   0.1690

    Orbital         8        9       10       11       12       13
   2 O_a :1s     0.0601  -0.0678  -0.0126   0.0496  -0.0440   0.0872
   4 O_a :1s    -0.0267  -0.0692  -0.2441  -0.0522   0.1547   0.0369
   5 O_a :1s     2.0046   1.5392   5.3620  -0.7871  -3.2486  -4.0834
   6 O_a :1s    11.0545  14.7403  21.3452  -3.3161  -8.7512  -6.0986
   7 O_a :2pz    0.1947   0.0742  -0.0678   0.0173   0.1384   0.1112
   8 O_a :2pz   -0.0070  -0.0115  -0.0418   0.0013   0.0159   0.0123
   9 O_a :2pz    0.0809   0.1062   0.2776  -0.0107  -0.1213  -0.0627
  10 O_a :2pz    0.4934   2.2904   0.8303  -1.9846  -5.3540   1.6791
  11 O_a :2pz    0.2516   3.0896   2.1540  -1.2951  -1.4972   0.4935
  15 O_a :3d2+   0.0087   0.0040   0.0036   0.0022  -0.0157  -0.0069
  16 O_a :3d0    0.0124   0.0162  -0.0108  -0.0293  -0.0260   0.0297
  17 O_a :3d2+  -0.0399  -0.0520  -0.1437  -0.0238   0.1253   0.0317
  18 O_a :3d0   -0.0221   0.2996  -0.3322  -1.1182  -1.6103   0.2530
  19 O_a :3d2+   0.1746  -0.3948  -0.2259  -1.2060  -0.1528  -0.4381
  22 O_a :4f0   -0.0021  -0.0021  -0.0033   0.0061   0.0267   0.0083
  23 O_a :4f2+  -0.0052   0.0078  -0.0208   0.0086   0.0009   0.0103
  24 O_a :4f0    0.0033  -0.0039  -0.0456  -0.0947  -0.1026  -0.0341
  25 O_a :4f2+   0.0138  -0.0789  -0.0028  -0.0935   0.0822  -0.0880
  26 H_a :1s    -0.1970  -0.0324   0.2730  -0.0106  -0.0320  -0.0906
  27 H_a :1s     0.0249   0.0594  -0.0436  -0.0435  -0.0839  -0.0122
  28 H_a :1s    -0.1825  -1.3220  -0.4582  -0.4965   1.9161  -1.0514
  29 H_a :1s    -4.8662  -7.5182 -12.2694   2.1061   4.5949   4.0640
  30 H_a :1s    -0.6552  -0.1496  -0.1592   0.0205   0.0988   0.2278
  33 H_a :2py   -0.0003   0.0136   0.0256   0.0496  -0.0223   0.0195
  34 H_a :2pz   -0.0002   0.0146   0.0085  -0.0058  -0.0602   0.0363
  35 H_a :2py    0.1213   0.4913   0.5973  -0.4655  -1.1051   0.0758
  36 H_a :2pz    0.0861   0.1443   0.7060   0.5547   0.1007  -0.3190
  37 H_a :2py    2.2191   0.8205   2.7429  -1.3566  -1.5192  -2.2578
  38 H_a :2pz    1.7720   0.1131   2.7154   0.5081   0.3199  -2.1392
  42 H_a :3d1-  -0.0094  -0.0197  -0.0815  -0.0312   0.0494   0.0238
  43 H_a :3d0   -0.0010   0.0040  -0.0261  -0.0125  -0.0363  -0.0035
  44 H_a :3d2+  -0.0040   0.0295   0.0276  -0.0417  -0.0546   0.0342
  45 H_a :3d1-  -0.2692   0.0826  -0.4527   0.3585  -0.6368   1.0503
  46 H_a :3d0    0.0311   0.0584  -0.1632  -1.1606  -0.7508   0.4490
  47 H_a :3d2+   0.2576   0.0123   0.1148  -0.4395  -0.6696  -1.0880

 Molecular orbitals for symmetry species 2  (B1 )
 ------------------------------------------------

    Orbital         1        2        3        4        5        6        7
   1 O_a :2px    0.9789  -0.0530   0.0509   0.0996  -0.0201  -0.2741  -0.0270
   2 O_a :2px   -0.0116  -0.0048   0.0116  -0.0189   0.0060   0.0611  -0.0035
   3 O_a :2px    0.0184   0.0128  -0.0473   0.0928  -0.0434  -0.2936   0.0064
   4 O_a :2px    0.0441   0.0173   1.4984  -2.3034   4.0534   1.5187  -0.6324
   5 O_a :2px   -0.0016   1.6465   2.2140   0.1229   1.7042   0.0699   0.2925
   7 O_a :3d1+   0.0034   0.0047   0.0021   0.0059   0.0088  -0.0122   0.0577
   8 O_a :3d1+   0.0077  -0.0233  -0.0143  -0.0232  -0.0105   0.0843  -0.2082
   9 O_a :3d1+   0.0020   0.0912   0.4335  -0.7608   0.9769  -0.0746   1.4433
  12 O_a :4f1+   0.0016   0.0003  -0.0039   0.0214  -0.0002   0.0040  -0.0094
  13 O_a :4f3+  -0.0033   0.0015   0.0077  -0.0011   0.0220   0.0083  -0.0038
  14 O_a :4f1+   0.0017  -0.0019   0.0240  -0.0922   0.0190   0.0090   0.0568
  15 O_a :4f3+  -0.0039   0.0008  -0.0511   0.0474  -0.1188  -0.0928  -0.0094
  17 H_a :2px    0.0056   0.0035  -0.0049  -0.0239   0.0349  -0.0046   0.0085
  18 H_a :2px    0.0030   0.0058  -0.2629   0.4660  -0.6057  -0.0940  -0.0246
  19 H_a :2px   -0.0006  -0.4078  -1.8421   0.3748  -1.9618  -0.4688  -0.0581
  22 H_a :3d2-   0.0003  -0.0037   0.0183  -0.0108   0.0278   0.0647   0.0317
  23 H_a :3d1+   0.0001  -0.0073   0.0072  -0.0442  -0.0032   0.0368   0.0174
  24 H_a :3d2-  -0.0005   0.0545   0.2705  -0.9109   0.9990  -0.2738  -0.1263
  25 H_a :3d1+  -0.0003   0.0648   0.1898   0.1043   1.1695   0.1307  -0.6131

    Orbital         8        9       10       11
   1 O_a :2px    0.0616   0.0164  -0.1662  -0.4075
   2 O_a :2px   -0.0009  -0.0078  -0.0536  -0.1833
   3 O_a :2px    0.0177   0.0313   0.1628   0.5672
   4 O_a :2px    6.2539   0.2888  -0.6675  -3.8140
   5 O_a :2px    0.7107   0.3677  -0.1849  -0.1752
   6 O_a :3d1+  -0.0014  -0.0186   0.0297  -0.0226
   7 O_a :3d1+  -0.0026   0.0399  -0.0610   0.0840
   8 O_a :3d1+   0.0269  -0.4716   0.8123  -0.9008
   9 O_a :3d1+   2.4001   0.2546  -1.0815  -0.9684
  10 O_a :4f1+   0.0015  -0.0241  -0.0232  -0.0048
  11 O_a :4f3+  -0.0040  -0.0117   0.0017   0.0264
  12 O_a :4f1+  -0.0102   0.1110   0.1175   0.0199
  13 O_a :4f3+   0.0256   0.0548  -0.0115  -0.1298
  14 O_a :4f1+   0.0965  -0.5742  -0.7617  -0.2712
  15 O_a :4f3+  -0.2408  -0.3524   0.2475   1.2557
  16 H_a :2px   -0.0256   0.0036  -0.0120  -0.0054
  17 H_a :2px    0.0888  -0.0543   0.1778  -0.0042
  18 H_a :2px   -2.8387  -0.0355   0.3411   1.8367
  19 H_a :2px   -1.2512  -0.3081   0.2041   0.5838
  20 H_a :3d2-  -0.0075  -0.0185   0.0105   0.0150
  21 H_a :3d1+  -0.0032   0.0126   0.0107   0.0129
  22 H_a :3d2-   0.0975   0.2772  -0.2052  -0.3762
  23 H_a :3d1+   0.0559  -0.1865  -0.1838  -0.3292
  24 H_a :3d2-   1.1924  -0.1388  -0.0804  -0.4402
  25 H_a :3d1+   0.8246   0.2025   0.2150  -0.4242

 Molecular orbitals for symmetry species 3  (B2 )
 ------------------------------------------------

    Orbital         1        2        3        4        5        6        7
   1 O_a :2py    0.6553  -0.4851   0.2243   0.1067  -0.2205  -0.0130   0.0552
   2 O_a :2py    0.0019  -0.0000   0.0047  -0.0148  -0.0002   0.0043   0.0391
   3 O_a :2py    0.0673  -0.0710  -0.0034   0.1298  -0.0466  -0.0412  -0.3105
   4 O_a :2py    0.0455  -0.1541  -0.3015   1.3429   0.0678   1.3032  -3.9243
   5 O_a :2py    0.0085  -0.2345  -1.3124   4.5143  -0.5192   3.2292  -4.8014
   7 O_a :3d1-   0.0145   0.0048  -0.0017  -0.0060   0.0091   0.0025   0.0049
   8 O_a :3d1-   0.0294   0.0035  -0.0227   0.0556  -0.0272  -0.0179  -0.2053
   9 O_a :3d1-  -0.0007   0.0053  -0.0450   0.2895   0.5843   0.2297  -0.9852
  14 O_a :4f3-  -0.0032   0.0015   0.0027  -0.0164  -0.0159  -0.0283   0.0474
  15 O_a :4f1-   0.0022   0.0000   0.0008   0.0131   0.0553  -0.0232  -0.0478
  16 H_a :1s     0.3848   0.3407  -0.1770  -0.1377   0.1976   0.0212  -0.1839
  17 H_a :1s    -0.0193  -0.0131  -0.0053   0.0312  -0.0245   0.0230  -0.0836
  18 H_a :1s    -0.0096   0.1264   0.0904  -0.7020  -0.2824  -0.4144   1.8736
  19 H_a :1s    -0.0445   0.5090   1.8226  -7.0849   3.2186   6.7718  16.5973
  20 H_a :1s    -0.0042   0.9182   3.4751  -2.7897   1.1434  -0.4896   1.7167
  23 H_a :2py   -0.0046   0.0143  -0.0082   0.0059   0.0079   0.0079  -0.0305
  24 H_a :2pz   -0.0079   0.0143  -0.0083  -0.0004   0.0004  -0.0061  -0.0248
  25 H_a :2py    0.0026   0.0513  -0.0978   0.2365   0.0777  -0.1767  -0.7481
  26 H_a :2pz   -0.0034   0.0470  -0.0969   0.2001  -0.0296   0.1761  -0.6543
  27 H_a :2py    0.0161   0.0729  -0.4911   1.2911  -1.7212  -5.6759  -4.2616
  28 H_a :2pz    0.0080   0.0571  -0.5275   1.2266  -1.8217   1.8176  -2.4107
  32 H_a :3d1-  -0.0000   0.0001   0.0071  -0.0228  -0.0033   0.0146   0.0721
  33 H_a :3d0    0.0010  -0.0011   0.0007   0.0016   0.0115  -0.0054   0.0038
  34 H_a :3d2+   0.0005  -0.0006  -0.0043   0.0146   0.0023   0.0011  -0.0470
  35 H_a :3d1-  -0.0027   0.0001   0.0626  -0.1072   0.3240  -0.1900   0.1137
  36 H_a :3d0    0.0003   0.0012   0.0262  -0.0537   0.1122  -0.3511  -0.0582
  37 H_a :3d2+   0.0037  -0.0014  -0.0238   0.0307  -0.1227  -0.5179  -0.1013

    Orbital         8        9       10       11
   1 O_a :2py    0.0842  -0.1075  -0.1361  -0.1377
   2 O_a :2py    0.0012  -0.0092  -0.0106  -0.0531
   3 O_a :2py    0.0058   0.0640   0.0715   0.4656
   4 O_a :2py    1.6750   4.5024  -3.2418   5.6843
   5 O_a :2py   -1.3653   2.6787  -0.7990   2.3660
   7 O_a :3d1-  -0.0108  -0.0109  -0.0063  -0.0516
   8 O_a :3d1-   0.0653   0.0832   0.0431   0.4923
   9 O_a :3d1-   1.5900   0.4915  -1.0522   0.1733
  12 O_a :4f3-  -0.0039  -0.0004  -0.0227  -0.0016
  13 O_a :4f1-  -0.0155   0.0118   0.0005   0.0230
  14 O_a :4f3-  -0.0287  -0.0498   0.1133  -0.1173
  15 O_a :4f1-   0.1267  -0.0790  -0.0139  -0.0150
  16 H_a :1s    -0.1200   0.0001   0.0964  -0.1150
  17 H_a :1s     0.0046   0.1013   0.0218   0.1105
  18 H_a :1s    -1.9103  -1.5351   1.3500  -2.9100
  19 H_a :1s     3.1759   0.1389  -4.9599 -13.3851
  20 H_a :1s     0.8271  -0.5451  -0.2700  -0.7235
  23 H_a :2py    0.0488   0.0482  -0.0301   0.0831
  24 H_a :2pz    0.0259  -0.0233   0.0073   0.0712
  25 H_a :2py    0.1500  -0.0302   0.2770   1.1260
  26 H_a :2pz   -0.0361   0.7246  -0.2172   0.9785
  27 H_a :2py   -0.8729  -2.5772   3.4841   3.9184
  28 H_a :2pz   -1.6605   2.8134   0.3963   1.5795
  32 H_a :3d1-  -0.0073  -0.0109   0.0041  -0.1666
  33 H_a :3d0   -0.0106  -0.0496  -0.0162  -0.0279
  34 H_a :3d2+   0.0253   0.0221   0.0232   0.0806
  35 H_a :3d1-   0.9006  -0.9804  -1.0744   0.4202
  36 H_a :3d0    0.9533  -0.6896   1.0073  -0.2525
  37 H_a :3d2+  -0.7004  -1.1742   0.9396   0.5555

 Molecular orbitals for symmetry species 4  (A2 )
 ------------------------------------------------

    Orbital         1        2        3        4        5        6        7
   1 O_a :3d2-   0.0013  -0.0004   0.0000  -0.0031   0.0017  -0.0340  -0.0136
   2 O_a :3d2-  -0.0043  -0.0052   0.0168   0.0527   0.0034   0.0652   0.0452
   3 O_a :3d2-   0.0278   0.0014  -0.0328  -0.1816  -0.0363  -0.8659  -0.5474
   4 O_a :3d2-  -0.4953  -1.4182   0.1158   1.5499  -3.0489   0.9915  -1.8273
   5 O_a :4f2-  -0.0018  -0.0044   0.0015   0.0004  -0.0057   0.0064  -0.0371
   6 O_a :4f2-   0.0096   0.0215  -0.0073  -0.0006   0.0377  -0.0390   0.1842
   7 O_a :4f2-  -0.0529  -0.1373   0.0419   0.0557  -0.3365   0.4321  -1.5201
   8 H_a :2px    0.0010   0.0012   0.0035   0.0061   0.0224   0.0130  -0.0001
   9 H_a :2px    0.0045  -0.0360   0.0012   0.0016  -0.0604  -0.1868  -0.1309
  10 H_a :2px    0.2132   0.6592   0.0427  -0.0083   2.6876  -0.1822   2.1560
  11 H_a :2px    1.7641   1.5773  -0.9921   0.4380   1.0575  -0.2044   0.7030
  12 H_a :3d2-  -0.0003  -0.0003   0.0036  -0.0068   0.0045  -0.0021  -0.0102
  13 H_a :3d1+   0.0010  -0.0012  -0.0065  -0.0018   0.0049  -0.0214   0.0067
  14 H_a :3d2-  -0.0007  -0.0246  -0.0252   0.0558  -0.0869   0.0551   0.0114
  15 H_a :3d1+  -0.0109  -0.0092   0.0519   0.0068  -0.0760   0.3676  -0.2456
  16 H_a :3d2-  -0.3090  -1.0661   0.8409  -1.1960  -0.8839  -0.1302  -0.7702
  17 H_a :3d1+  -0.1780  -1.0876  -0.7413   0.4325  -1.0575  -0.0291  -0.4656

    Orbital         8        9       10
   1 O_a :3d2-   0.0122   0.0075   0.0323
   2 O_a :3d2-  -0.0234  -0.0752  -0.0886
   3 O_a :3d2-   0.4016   0.8943   1.9075
   4 O_a :3d2-  -0.9298   1.4959   0.7732
   5 O_a :4f2-  -0.0166  -0.0133   0.0090
   6 O_a :4f2-   0.0930   0.0774  -0.0843
   7 O_a :4f2-  -0.7495   0.5331   1.4808
   8 H_a :2px   -0.0117  -0.0347   0.0520
   9 H_a :2px    0.1427   0.5845  -1.0063
  10 H_a :2px    0.5153  -2.1610  -1.1871
  11 H_a :2px   -0.0245  -0.1849  -0.0708
  12 H_a :3d2-   0.0243  -0.0374  -0.0319
  13 H_a :3d1+  -0.0338  -0.0252  -0.0293
  14 H_a :3d2-  -0.5383   0.8864   0.9306
  15 H_a :3d1+   0.5714   0.5850   0.7684
  16 H_a :3d2-   0.2472   0.2778   0.0870
  17 H_a :3d1+  -0.4188   0.4271   0.0824

  Total CPU  time used in SIRIUS :   6.84 seconds
  Total wall time used in SIRIUS :   6.91 seconds

 
     Date and time (Linux)  : Thu Dec 11 09:31:09 2025
     Host name              : xm061                                   

 NOTE:    1 warnings have been issued.
 Check output, result, and error files for "WARNING".


                     .---------------------------------------.
                     | End of Wave Function Section (SIRIUS) |
                     `---------------------------------------'


 Center of mass dipole origin  :    0.000000    0.000000    0.000000

 Center of mass gauge origin   :    0.000000    0.000000    0.000000


                 .------------------------------------------------.
                 | Starting in Static Property Section (ABACUS) - |
                 `------------------------------------------------'


 
     Date and time (Linux)  : Thu Dec 11 09:31:09 2025
     Host name              : xm061                                   


   ***************************************************************************
   ************************ FINAL RESULTS from ABACUS ************************
   ***************************************************************************


 
     Date and time (Linux)  : Thu Dec 11 09:31:11 2025
     Host name              : xm061                                   


                             Molecular geometry (au)
                             -----------------------

 O_a        0.0000000000            0.0000000000           -0.2343978024
 H_a _1     0.0000000000            2.7040102839            1.8600317146
 H_a _2     0.0000000000           -2.7040102839            1.8600317146





                        Molecular wave function and energy
                        ----------------------------------

     Spatial symmetry   1 ( A1  )
     Spin multiplicity  1
     2 * M_S            0
     State number       1
     Total charge       0

     Total energy        -75.6711198669 au (Hartrees)
                         -2059.11591630 eV
                           -198674.4946 kJ/mol
                            -47484.3438 kcal/mol


                   Scalar Breit-Pauli relativistic corrections
                   -------------------------------------------

     Darwin correction:                          0.2008941454 au
     Mass-velocity correction:                  -0.2527918604 au

     Total relativistic correction:             -0.0518977150 au ( 0.0686%)
     Non-relativistic + relativistic energy:   -75.7230175819 au



      (Note that these corrections are NOT included in the results below.)


                             Molecular gradient (au)
                             -----------------------

                         O_a z     -0.1243175449
                         H_a y      0.1778565079
                         H_a z      0.1243175449



 O_a        0.0000000000            0.0000000000           -0.1243175449
 H_a _1     0.0000000000            0.0889282539            0.0621587725
 H_a _2     0.0000000000           -0.0889282539            0.0621587725





                                  Dipole moment
                                  -------------

                 au               Debye          C m (/(10**-30)
              0.916291           2.328979           7.768639


                             Dipole moment components
                             ------------------------

                 au               Debye          C m (/(10**-30)

      z      0.91629107         2.32897944         7.76863920


   Units:   1 a.u. =   2.54175 Debye 
            1 a.u. =   8.47835 (10**-30) C m (SI)




   Interatomic separations (in Angstrom):
   --------------------------------------

            O_a         H_a _1      H_a _2
            ------      ------      ------
 O_a   :    0.000000
 H_a _1:    1.809934    0.000000
 H_a _2:    1.809934    2.861801    0.000000


  Max    interatomic separation is    2.8618 Angstrom (    5.4080 Bohr)
  between atoms    3 and    2, "H_a _2" and "H_a _1".

  Min HX interatomic separation is    1.8099 Angstrom (    3.4203 Bohr)


  Bond distances (Angstrom):
  --------------------------

                  atom 1     atom 2       distance
                  ------     ------       --------


  Bond angles (degrees):
  ----------------------

                  atom 1     atom 2     atom 3         angle
                  ------     ------     ------         -----
     No angles found




 CPU time statistics for ABACUS
 ------------------------------

 TWOTEX     00:00:02      97 %

 TOTAL      00:00:02     100 %


  Total CPU  time used in ABACUS:   2.07 seconds
  Total wall time used in ABACUS:   2.09 seconds


                   .-------------------------------------------.
                   | End of Static Property Section (ABACUS) - |
                   `-------------------------------------------'


Building simple model Hessian by Roland Lindh ...

Initial model Hessian in internal coordinates has been calculated


           :::::::::::::::::::::::::::::::::::::::::::::::::::::::::::
           ::::::::::::::: Optimization Control Center :::::::::::::::
           :::::::::::::::::::::::::::::::::::::::::::::::::::::::::::



                                Next geometry (au)
                                ------------------

 O_a        0.0000000000            0.0000000000           -0.1423329170
 H_a _1     0.0000000000            2.3654577388            1.8139992719
 H_a _2     0.0000000000           -2.3654577388            1.8139992719





                             Optimization information
                             ------------------------

 Iteration number               :       0
 End of optimization            :       F 
 Energy at this geometry is     :     -75.671119866862
 Norm of gradient               :       0.197481003284
 Norm of step                   :       0.499999979136
 Updated trust radius           :       0.500000000000
 Total effective Hessian index  :       0




 **************************************************************************************
 ****************** Output of molecule and basis set info suppressed ******************
 **************************************************************************************



                     .---------------------------------------.
                     | Starting in Integral Section (HERMIT) |
                     `---------------------------------------'



 ***************************************************************************************
 ****************** Output from **INTEGRALS input processing (HERMIT) ******************
 ***************************************************************************************


 - Using defaults, no **INTEGRALS input found

 Default print level:       -1

 Calculation of one-electron Hamiltonian integrals.

 Center of mass  (bohr):      0.000000000000      0.000000000000      0.076609741185
 Operator center (bohr):      0.000000000000      0.000000000000      0.000000000000
 Gauge origin    (bohr):      0.000000000000      0.000000000000      0.000000000000
 Dipole origin   (bohr):      0.000000000000      0.000000000000      0.000000000000


                      Nuclear contribution to dipole moments
                      --------------------------------------

                 au               Debye          C m (/(10**-30)

      z      2.48933521         6.32725857        21.10546281


  Total CPU  time used in HERMIT:   0.07 seconds
  Total wall time used in HERMIT:   0.08 seconds


                        .----------------------------------.
                        | End of Integral Section (HERMIT) |
                        `----------------------------------'



                   .--------------------------------------------.
                   | Starting in Wave Function Section (SIRIUS) |
                   `--------------------------------------------'

* Read MO coefficients from SIRIUS.RST with label "NEWORB  " and header info: 11Dec25  FOCKDIIS

 **********************************************************************
 *SIRIUS* a direct, restricted step, second order MCSCF program       *
 **********************************************************************

 (Wave function specification suppressed here, see output above for initial geometry.)


 ***********************************************
 ***** DIIS acceleration of SCF iterations *****
 ***********************************************

 C1-DIIS algorithm; max error vectors =    8

 Iter      Total energy        Error norm    Delta(E)  DIIS dim.
 -----------------------------------------------------------------------------
   1  Screening settings (-IFTHRS, JTDIIS, DIFDEN, times)  -14    1    T  1.49D-01  1.50D-01
@  1    -75.7505468210        2.07511D-01   -7.94D-02    1
      Virial theorem: -V/T =      2.012659
@    MULPOP   O_a    -0.59; H_a _1  0.29; H_a _2  0.29; 
 -----------------------------------------------------------------------------
   2  Screening settings (-IFTHRS, JTDIIS, DIFDEN, times)   -9    2    F  1.21D-01  1.21D-01
@  2    -75.7526841196        1.72434D-01   -2.14D-03    2
      Virial theorem: -V/T =      2.007207
@    MULPOP   O_a    -0.67; H_a _1  0.33; H_a _2  0.33; 
 -----------------------------------------------------------------------------
   3  Screening settings (-IFTHRS, JTDIIS, DIFDEN, times)   -9    3    T  1.28D-01  1.28D-01
@  3    -75.7539631302        4.21666D-02   -1.28D-03    3
      Virial theorem: -V/T =      2.011227
@    MULPOP   O_a    -0.62; H_a _1  0.31; H_a _2  0.31; 
 -----------------------------------------------------------------------------
   4  Screening settings (-IFTHRS, JTDIIS, DIFDEN, times)   -9    4    T  1.21D-01  1.22D-01
@  4    -75.7541487112        1.29639D-02   -1.86D-04    4
      Virial theorem: -V/T =      2.010439
@    MULPOP   O_a    -0.63; H_a _1  0.32; H_a _2  0.32; 
 -----------------------------------------------------------------------------
   5  Screening settings (-IFTHRS, JTDIIS, DIFDEN, times)   -9    5    T  1.23D-01  1.23D-01
@  5    -75.7541704734        3.29187D-03   -2.18D-05    5
      Virial theorem: -V/T =      2.010627
@    MULPOP   O_a    -0.63; H_a _1  0.32; H_a _2  0.32; 
 -----------------------------------------------------------------------------
   6  Screening settings (-IFTHRS, JTDIIS, DIFDEN, times)  -11    6    F  1.20D-01  1.21D-01
@  6    -75.7541730979        1.12405D-03   -2.62D-06    6
      Virial theorem: -V/T =      2.010669
@    MULPOP   O_a    -0.63; H_a _1  0.32; H_a _2  0.32; 
 -----------------------------------------------------------------------------
   7  Screening settings (-IFTHRS, JTDIIS, DIFDEN, times)  -11    7    T  1.25D-01  1.26D-01
@  7    -75.7541736072        5.49823D-04   -5.09D-07    7
      Virial theorem: -V/T =      2.010681
@    MULPOP   O_a    -0.63; H_a _1  0.32; H_a _2  0.32; 
 -----------------------------------------------------------------------------
   8  Screening settings (-IFTHRS, JTDIIS, DIFDEN, times)  -11    8    T  1.26D-01  1.26D-01
@  8    -75.7541738061        2.25168D-04   -1.99D-07    8
      Virial theorem: -V/T =      2.010679
@    MULPOP   O_a    -0.63; H_a _1  0.32; H_a _2  0.32; 
 -----------------------------------------------------------------------------
   9  Screening settings (-IFTHRS, JTDIIS, DIFDEN, times)  -14    9    F  1.24D-01  1.25D-01
@  9    -75.7541738405        2.05790D-05   -3.44D-08    8
      Virial theorem: -V/T =      2.010681
@    MULPOP   O_a    -0.63; H_a _1  0.32; H_a _2  0.32; 
 -----------------------------------------------------------------------------
  10  Screening settings (-IFTHRS, JTDIIS, DIFDEN, times)  -14   10    T  1.20D-01  1.20D-01
@ 10    -75.7541738407        2.77897D-06   -1.61D-10    8
      Virial theorem: -V/T =      2.010681
@    MULPOP   O_a    -0.63; H_a _1  0.32; H_a _2  0.32; 
 -----------------------------------------------------------------------------
  11  Screening settings (-IFTHRS, JTDIIS, DIFDEN, times)  -14   11    T  1.37D-01  1.37D-01
@ 11    -75.7541738407        6.73050D-07   -2.07D-12    8
      Virial theorem: -V/T =      2.010681
@    MULPOP   O_a    -0.63; H_a _1  0.32; H_a _2  0.32; 
 -----------------------------------------------------------------------------
  12  Screening settings (-IFTHRS, JTDIIS, DIFDEN, times)  -14   12    T  1.24D-01  1.24D-01
@ 12    -75.7541738407        7.09674D-08   -1.42D-13    8
      Virial theorem: -V/T =      2.010681
@    MULPOP   O_a    -0.63; H_a _1  0.32; H_a _2  0.32; 
 -----------------------------------------------------------------------------
  13  Screening settings (-IFTHRS, JTDIIS, DIFDEN, times)  -14   13    T  1.29D-01  1.30D-01
@ 13    -75.7541738407        9.75199D-09    5.68D-14    8

@ *** DIIS converged in  13 iterations !
@     Converged SCF energy, gradient:    -75.754173840663    9.75D-09
    - total time used in SIRFCK :              0.00 seconds


 *** SCF orbital energy analysis ***

 Only the 20 lowest virtual orbital energies printed in each symmetry.

 Number of electrons :   10
 Orbital occupations :    3    1    1    0

 Sym       Hartree-Fock orbital energies

1 A1    -20.64672484    -1.20975594    -0.46861228    -0.00977098     0.01632437
          0.03454404     0.06966192     0.07641254     0.08695237     0.14698388
          0.18543318     0.20840941     0.22696485     0.25963426     0.30131674
          0.31828887     0.41185863     0.44261199     0.48966147     0.71455099
          0.80071239     0.85565175     0.87990014

2 B1     -0.50375382     0.04053593     0.08032931     0.20141915     0.21021340
          0.24132944     0.29984226     0.44753355     0.78027671     0.85779922
          0.88139704     0.97055104     1.09641360     1.14157813     1.59508776
          2.34326735     2.45784091     2.54275611     3.91905903     4.01996610
          4.26259361

3 B2     -0.48631621     0.01055009     0.03068056     0.05520345     0.08695847
          0.09620725     0.13439395     0.21914802     0.23534834     0.25307560
          0.30699946     0.35084340     0.47685789     0.51204186     0.72721784
          0.87588738     0.92093888     0.96868032     1.06320608     1.13330948
          1.22235612

4 A2      0.07445275     0.20153985     0.23359340     0.33711270     0.44233525
          0.83352403     0.95184678     1.02516972     1.09183703     1.54466797
          2.36328744     2.57282107     3.90640540     4.16533840     4.30511165
          6.85313313     7.17886426

    E(LUMO) :    -0.00977098 au (symmetry 1)
  - E(HOMO) :    -0.46861228 au (symmetry 1)
  ------------------------------------------
    gap     :     0.45884130 au

 --- Writing SIRIFC interface file

 CPU and wall time for SCF :       1.686       1.695


                       .-----------------------------------.
                       | --- Final results from SIRIUS --- |
                       `-----------------------------------'


@    Spin multiplicity:           1
@    Spatial symmetry:            1 ( irrep  A1  in C2v )
@    Total charge of molecule:    0

@    Final HF energy:             -75.754173840663                 
@    Nuclear repulsion:             5.423730823807
@    Electronic energy:           -81.177904664470

@    Final gradient norm:           0.000000009752

 
     Date and time (Linux)  : Thu Dec 11 09:31:13 2025
     Host name              : xm061                                   

  Total CPU  time used in SIRIUS :   1.69 seconds
  Total wall time used in SIRIUS :   1.70 seconds

 
     Date and time (Linux)  : Thu Dec 11 09:31:13 2025
     Host name              : xm061                                   

 NOTE:    1 warnings have been issued.
 Check output, result, and error files for "WARNING".


                     .---------------------------------------.
                     | End of Wave Function Section (SIRIUS) |
                     `---------------------------------------'

 Trust radius increased due to good ratio.
 Updated trust radius   0.60000

 Center of mass dipole origin  :    0.000000    0.000000    0.076610

 Center of mass gauge origin   :    0.000000    0.000000    0.076610


                 .------------------------------------------------.
                 | Starting in Static Property Section (ABACUS) - |
                 `------------------------------------------------'


 
     Date and time (Linux)  : Thu Dec 11 09:31:13 2025
     Host name              : xm061                                   


   ***************************************************************************
   ************************ FINAL RESULTS from ABACUS ************************
   ***************************************************************************


 
     Date and time (Linux)  : Thu Dec 11 09:31:15 2025
     Host name              : xm061                                   


 CPU time statistics for ABACUS
 ------------------------------

 TWOTEX     00:00:02      97 %

 TOTAL      00:00:02     100 %


  Total CPU  time used in ABACUS:   2.18 seconds
  Total wall time used in ABACUS:   2.19 seconds


                   .-------------------------------------------.
                   | End of Static Property Section (ABACUS) - |
                   `-------------------------------------------'



           :::::::::::::::::::::::::::::::::::::::::::::::::::::::::::
           ::::::::::::::: Optimization Control Center :::::::::::::::
           :::::::::::::::::::::::::::::::::::::::::::::::::::::::::::



                                Next geometry (au)
                                ------------------

 O_a        0.0000000000            0.0000000000            0.0168508328
 H_a _1     0.0000000000            2.0126920384            1.7344073969
 H_a _2     0.0000000000           -2.0126920384            1.7344073969





                             Optimization information
                             ------------------------

 Iteration number               :       1
 End of optimization            :       F 
 Energy at this geometry is     :     -75.754173840663
 Energy change from last geom.  :      -0.083053973801
 Predicted change               :      -0.074048389465
 Ratio, actual/predicted change :       1.121617558471
 Norm of gradient               :       0.233816894566
 Norm of step                   :       0.599999957369
 Updated trust radius           :       0.599999974964
 Total effective Hessian index  :       1




 **************************************************************************************
 ****************** Output of molecule and basis set info suppressed ******************
 **************************************************************************************



                     .---------------------------------------.
                     | Starting in Integral Section (HERMIT) |
                     `---------------------------------------'



 ***************************************************************************************
 ****************** Output from **INTEGRALS input processing (HERMIT) ******************
 ***************************************************************************************


 - Using defaults, no **INTEGRALS input found

 Default print level:       -1

 Calculation of one-electron Hamiltonian integrals.

 Center of mass  (bohr):      0.000000000000      0.000000000000      0.209070948566
 Operator center (bohr):      0.000000000000      0.000000000000      0.000000000000
 Gauge origin    (bohr):      0.000000000000      0.000000000000      0.000000000000
 Dipole origin   (bohr):      0.000000000000      0.000000000000      0.000000000000


                      Nuclear contribution to dipole moments
                      --------------------------------------

                 au               Debye          C m (/(10**-30)

      z      3.60362146         9.15949153        30.55277505


  Total CPU  time used in HERMIT:   0.07 seconds
  Total wall time used in HERMIT:   0.08 seconds


                        .----------------------------------.
                        | End of Integral Section (HERMIT) |
                        `----------------------------------'



                   .--------------------------------------------.
                   | Starting in Wave Function Section (SIRIUS) |
                   `--------------------------------------------'

* Read MO coefficients from SIRIUS.RST with label "NEWORB  " and header info: 11Dec25  FOCKDIIS

 **********************************************************************
 *SIRIUS* a direct, restricted step, second order MCSCF program       *
 **********************************************************************

 (Wave function specification suppressed here, see output above for initial geometry.)


 ***********************************************
 ***** DIIS acceleration of SCF iterations *****
 ***********************************************

 C1-DIIS algorithm; max error vectors =    8

 Iter      Total energy        Error norm    Delta(E)  DIIS dim.
 -----------------------------------------------------------------------------
   1  Screening settings (-IFTHRS, JTDIIS, DIFDEN, times)  -14    1    T  1.35D-01  1.36D-01
@  1    -75.8596658157        3.28796D-01   -1.05D-01    1
      Virial theorem: -V/T =      2.012741
@    MULPOP   O_a    -0.62; H_a _1  0.31; H_a _2  0.31; 
 -----------------------------------------------------------------------------
   2  Screening settings (-IFTHRS, JTDIIS, DIFDEN, times)   -9    2    F  1.25D-01  1.25D-01
@  2    -75.8661642600        1.95999D-01   -6.50D-03    2
      Virial theorem: -V/T =      2.006370
@    MULPOP   O_a    -0.71; H_a _1  0.35; H_a _2  0.35; 
 -----------------------------------------------------------------------------
   3  Screening settings (-IFTHRS, JTDIIS, DIFDEN, times)   -9    3    T  1.30D-01  1.31D-01
@  3    -75.8677299515        7.27832D-02   -1.57D-03    3
      Virial theorem: -V/T =      2.011408
@    MULPOP   O_a    -0.65; H_a _1  0.33; H_a _2  0.33; 
 -----------------------------------------------------------------------------
   4  Screening settings (-IFTHRS, JTDIIS, DIFDEN, times)   -9    4    T  1.25D-01  1.26D-01
@  4    -75.8681846500        1.95690D-02   -4.55D-04    4
      Virial theorem: -V/T =      2.010033
@    MULPOP   O_a    -0.68; H_a _1  0.34; H_a _2  0.34; 
 -----------------------------------------------------------------------------
   5  Screening settings (-IFTHRS, JTDIIS, DIFDEN, times)   -9    5    T  1.22D-01  1.22D-01
@  5    -75.8682498644        6.02493D-03   -6.52D-05    5
      Virial theorem: -V/T =      2.010320
@    MULPOP   O_a    -0.68; H_a _1  0.34; H_a _2  0.34; 
 -----------------------------------------------------------------------------
   6  Screening settings (-IFTHRS, JTDIIS, DIFDEN, times)   -9    6    T  1.23D-01  1.23D-01
@  6    -75.8682611217        2.12073D-03   -1.13D-05    6
      Virial theorem: -V/T =      2.010380
@    MULPOP   O_a    -0.68; H_a _1  0.34; H_a _2  0.34; 
 -----------------------------------------------------------------------------
   7  Screening settings (-IFTHRS, JTDIIS, DIFDEN, times)  -11    7    F  1.26D-01  1.27D-01
@  7    -75.8682627884        6.58560D-04   -1.67D-06    7
      Virial theorem: -V/T =      2.010394
@    MULPOP   O_a    -0.68; H_a _1  0.34; H_a _2  0.34; 
 -----------------------------------------------------------------------------
   8  Screening settings (-IFTHRS, JTDIIS, DIFDEN, times)  -11    8    T  1.21D-01  1.22D-01
@  8    -75.8682629436        1.56506D-04   -1.55D-07    8
      Virial theorem: -V/T =      2.010389
@    MULPOP   O_a    -0.68; H_a _1  0.34; H_a _2  0.34; 
 -----------------------------------------------------------------------------
   9  Screening settings (-IFTHRS, JTDIIS, DIFDEN, times)  -14    9    F  1.23D-01  1.24D-01
@  9    -75.8682629512        1.54508D-05   -7.61D-09    8
      Virial theorem: -V/T =      2.010390
@    MULPOP   O_a    -0.68; H_a _1  0.34; H_a _2  0.34; 
 -----------------------------------------------------------------------------
  10  Screening settings (-IFTHRS, JTDIIS, DIFDEN, times)  -14   10    T  1.42D-01  1.43D-01
@ 10    -75.8682629513        2.65589D-06   -5.56D-11    8
      Virial theorem: -V/T =      2.010390
@    MULPOP   O_a    -0.68; H_a _1  0.34; H_a _2  0.34; 
 -----------------------------------------------------------------------------
  11  Screening settings (-IFTHRS, JTDIIS, DIFDEN, times)  -14   11    T  1.24D-01  1.24D-01
@ 11    -75.8682629513        3.69476D-07   -1.39D-12    8
      Virial theorem: -V/T =      2.010390
@    MULPOP   O_a    -0.68; H_a _1  0.34; H_a _2  0.34; 
 -----------------------------------------------------------------------------
  12  Screening settings (-IFTHRS, JTDIIS, DIFDEN, times)  -14   12    T  1.24D-01  1.24D-01
[...]

 O_a    x   -0.000007
 O_a    y    0.000000    0.805950
 O_a    z    0.000000    0.000000    0.524218

 H_a _1 x    0.000003    0.000000    0.000000    0.000006
 H_a _1 y    0.000000   -0.402975   -0.236671    0.000000    0.435904
 H_a _1 z    0.000000   -0.301898   -0.262109    0.000000    0.269284    0.244148

 H_a _2 x    0.000003    0.000000    0.000000   -0.000010    0.000000    0.000000
 H_a _2 y    0.000000   -0.402975    0.236671    0.000000   -0.032929    0.032613
 H_a _2 z    0.000000    0.301898   -0.262109    0.000000   -0.032613    0.017961


            H_a _2 x    H_a _2 y    H_a _2 z

 H_a _2 x    0.000006
 H_a _2 y    0.000000    0.435904
 H_a _2 z    0.000000   -0.269284    0.244148





                                  Dipole moment
                                  -------------

                 au               Debye          C m (/(10**-30)
              0.762780           1.938793           6.467116


                             Dipole moment components
                             ------------------------

                 au               Debye          C m (/(10**-30)

      z      0.76277979         1.93879271         6.46711635


   Units:   1 a.u. =   2.54175 Debye 
            1 a.u. =   8.47835 (10**-30) C m (SI)




                           Dipole moment gradient (au)
                           ---------------------------


    Symmetry 1
                       Ez

        O_a  z    -0.43866010
        H_a  y    -0.11644631
        H_a  z     0.43866010

    Symmetry 2
                       Ex

        O_a  x    -0.71543785
        H_a  x     0.71543785

    Symmetry 3
                       Ey

        O_a  y    -0.57390929
        H_a  y     0.57390929
        H_a  z    -0.10602838



                       Ex             Ey             Ez

      O_a    x    -0.71543785     0.00000000     0.00000000
      O_a    y     0.00000000    -0.57390929     0.00000000
      O_a    z     0.00000000     0.00000000    -0.43866010

      H_a _1 x     0.35771892     0.00000000     0.00000000
      H_a _1 y     0.00000000     0.28695465    -0.05822315
      H_a _1 z     0.00000000    -0.05301419     0.21933005

      H_a _2 x     0.35771892     0.00000000     0.00000000
      H_a _2 y     0.00000000     0.28695465     0.05822315
      H_a _2 z     0.00000000     0.05301419     0.21933005



                            +-------------------------+
                            ! APT Population Analysis !
                            +-------------------------+


      [ Reference : J. Cioslowski, J.Am.Chem.Soc. 111 (1989) 8333 ]

                            O_a      -0.576002
                            H_a _1    0.288001
                            H_a _2    0.288001



  ******************************************************************************
  ************************ ABACUS - CHEMICAL SHIELDINGS ************************
  ******************************************************************************



                 Shielding tensors in symmetry coordinates (ppm)
                 -----------------------------------------------


    Symmetry 2
                       By

        O_a  y   373.90888681
        H_a  y    79.64298777
        H_a  z    17.41960456

    Symmetry 3
                       Bx

        O_a  x   312.95845319
        H_a  x    47.17461690

    Symmetry 4
                       Bz

        O_a  z   323.91656486
        H_a  y    19.99386283
        H_a  z    61.14466425




  Chemical shielding for O_a   :
  ==============================


  Shielding constant:    336.9280 ppm
  Anisotropy:             55.4714 ppm
  Asymmetry:               0.2963    

  S parameter:            56.2773 ppm
  A parameter:             0.0000 ppm


  Total shielding tensor (ppm):
  -----------------------------

                    Bx             By             Bz

  O_a    x   312.95845319     0.00000000     0.00000000
  O_a    y     0.00000000   373.90888681     0.00000000
  O_a    z     0.00000000     0.00000000   323.91656486


  Diamagnetic and paramagnetic contributions (ppm):
  -------------------------------------------------

                 Bx         By         Bz            Bx         By         Bz

  O_a    x   417.6072     0.0000     0.0000     -104.6487     0.0000     0.0000
  O_a    y     0.0000   414.3873     0.0000        0.0000   -40.4784     0.0000
  O_a    z     0.0000     0.0000   413.8794        0.0000     0.0000   -89.9628

  Diamagnetic contribution:    415.291268         Paramagnetic:     -78.363300


  Antisymmetric and traceless symmetric parts (ppm):
  --------------------------------------------------

                 Bx         By         Bz            Bx         By         Bz

  O_a    x     0.0000     0.0000     0.0000      -23.9695     0.0000     0.0000
  O_a    y     0.0000     0.0000     0.0000        0.0000    36.9809     0.0000
  O_a    z     0.0000     0.0000     0.0000        0.0000     0.0000   -13.0114


  Principal values and axes:
  --------------------------

  O_a       312.958453  =  336.93  -  23.97:     1.000000  0.000000  0.000000
  O_a       323.916565  =  336.93  -  13.01:     0.000000  0.000000  1.000000
  O_a       373.908887  =  336.93  +  36.98:     0.000000  1.000000  0.000000


  Chemical shielding for H_a _1:
  ==============================


  Shielding constant:     31.3270 ppm
  Anisotropy:             21.4561 ppm
  Asymmetry:               0.0822    

  S parameter:            21.4802 ppm
  A parameter:             0.6436 ppm


  Total shielding tensor (ppm):
  -----------------------------

                    Bx             By             Bz

  H_a _1 x    23.58730845     0.00000000     0.00000000
  H_a _1 y     0.00000000    39.82149388     9.99693142
  H_a _1 z     0.00000000     8.70980228    30.57233213


  Diamagnetic and paramagnetic contributions (ppm):
  -------------------------------------------------

                 Bx         By         Bz            Bx         By         Bz

  H_a _1 x    13.1185     0.0000     0.0000       10.4688     0.0000     0.0000
  H_a _1 y     0.0000    37.3825    17.8079        0.0000     2.4390    -7.8109
  H_a _1 z     0.0000    15.3092    23.1784        0.0000    -6.5994     7.3940

  Diamagnetic contribution:     24.559775         Paramagnetic:       6.767270


  Antisymmetric and traceless symmetric parts (ppm):
  --------------------------------------------------

                 Bx         By         Bz            Bx         By         Bz

  H_a _1 x     0.0000     0.0000     0.0000       -7.7397     0.0000     0.0000
  H_a _1 y     0.0000     0.0000     0.6436        0.0000     8.4944     9.3534
  H_a _1 z     0.0000    -0.6436     0.0000        0.0000     9.3534    -0.7547


  Principal values and axes:
  --------------------------

  H_a _1     23.587308  =   31.33  -   7.74:     1.000000  0.000000  0.000000
  H_a _1     24.762728  =   31.33  -   6.56:     0.000000 -0.527629  0.849475
  H_a _1     45.631098  =   31.33  +  14.30:     0.000000  0.849475  0.527629


  Chemical shielding for H_a _2:
  ==============================


  Shielding constant:     31.3270 ppm
  Anisotropy:             21.4561 ppm
  Asymmetry:               0.0822    

  S parameter:            21.4802 ppm
  A parameter:             0.6436 ppm


  Total shielding tensor (ppm):
  -----------------------------

                    Bx             By             Bz

  H_a _2 x    23.58730845     0.00000000     0.00000000
  H_a _2 y     0.00000000    39.82149388    -9.99693142
  H_a _2 z     0.00000000    -8.70980228    30.57233213


  Diamagnetic and paramagnetic contributions (ppm):
  -------------------------------------------------

                 Bx         By         Bz            Bx         By         Bz

  H_a _2 x    13.1185     0.0000     0.0000       10.4688     0.0000     0.0000
  H_a _2 y     0.0000    37.3825   -17.8079        0.0000     2.4390     7.8109
  H_a _2 z     0.0000   -15.3092    23.1784        0.0000     6.5994     7.3940

  Diamagnetic contribution:     24.559775         Paramagnetic:       6.767270


  Antisymmetric and traceless symmetric parts (ppm):
  --------------------------------------------------

                 Bx         By         Bz            Bx         By         Bz

  H_a _2 x     0.0000     0.0000     0.0000       -7.7397     0.0000     0.0000
  H_a _2 y     0.0000     0.0000    -0.6436        0.0000     8.4944    -9.3534
  H_a _2 z     0.0000     0.6436     0.0000        0.0000    -9.3534    -0.7547


  Principal values and axes:
  --------------------------

  H_a _2     23.587308  =   31.33  -   7.74:     1.000000  0.000000  0.000000
  H_a _2     24.762728  =   31.33  -   6.56:     0.000000  0.527629  0.849475
  H_a _2     45.631098  =   31.33  +  14.30:     0.000000  0.849475 -0.527629


                         +--------------------------------+
                         ! Summary of chemical shieldings !
                         +--------------------------------+

@1  Definitions from J. Mason, Solid state Nuc. Magn. Res. 2 (1993), 285

@1 London orbitals (GIAOs) has been used.

@1 atom   shielding       dia      para     skew      span     (aniso     asym)
@1 ----------------------------------------------------------------------------
@1 O_a     336.9280  415.2913  -78.3633    0.6404   60.9504   55.4714    0.2963
@1 H_a _1   31.3270   24.5598    6.7673    0.8934   22.0438   21.4561    0.0822
@1 H_a _2   31.3270   24.5598    6.7673    0.8934   22.0438   21.4561    0.0822



                         +--------------------------------+
                         ! Summary of chemical shieldings !
                         +--------------------------------+

@2  Definitions from Smith, Palke, and Grieg, Concepts in Mag. Res. 4 (1992), 107

@2 London orbitals (GIAOs) has been used.

@2 atom   shielding       dia      para     aniso      asym        S        A
@2 ----------------------------------------------------------------------------
@2 O_a     336.9280  415.2913  -78.3633   55.4714    0.2963   56.2773    0.0000
@2 H_a _1   31.3270   24.5598    6.7673   21.4561    0.0822   21.4802    0.6436
@2 H_a _2   31.3270   24.5598    6.7673   21.4561    0.0822   21.4802    0.6436



   Interatomic separations (in Angstrom):
   --------------------------------------

            O_a         H_a _1      H_a _2
            ------      ------      ------
 O_a   :    0.000000
 H_a _1:    0.940993    0.000000
 H_a _2:    0.940993    1.506192    0.000000


  Max    interatomic separation is    1.5062 Angstrom (    2.8463 Bohr)
  between atoms    3 and    2, "H_a _2" and "H_a _1".

  Min HX interatomic separation is    0.9410 Angstrom (    1.7782 Bohr)


  Bond distances (Angstrom):
  --------------------------

                  atom 1     atom 2       distance
                  ------     ------       --------
  bond distance:  H_a _1     O_a          0.940993
  bond distance:  H_a _2     O_a          0.940993


  Bond angles (degrees):
  ----------------------

                  atom 1     atom 2     atom 3         angle
                  ------     ------     ------         -----
  bond angle:     H_a _1     O_a        H_a _2       106.321




   ****************************************************************************
   *************** ABACUS - ROTATIONAL AND VIBRATIONAL ANALYSIS ***************
   ****************************************************************************


 Norm of (unprojected) molecular gradient (au) :     0.00003323


 Conversion factors used:

    Hartree to (cm)-1      : 219474.62934
    a.m.u.  to a.u.        :   1822.88848
    Bohr    to Angstrom    :  0.529177211
    a.u.    to A**4amu-1   :   142.943572
    a.u.    to km (mol)-1  :      974.864


 Vibrational analysis for parent molecule only.
  Norm of projected gradient     0.000033


                         Isotopic Molecule No. 1
                         ======================= 


                                 Isotopic Masses
                                 ---------------

                           O_a        15.994915
                           H_a _1      1.007825
                           H_a _2      1.007825

                       Total mass:    18.010565 amu
                       Natural abundance:  99.730 %

 Center-of-mass coordinates (a.u.):    0.000000    0.000000    0.570428
 Center-of-mass coordinates (Angs):    0.000000    0.000000    0.301857


 Principal moments of inertia (u*A**2) and principal axes
 --------------------------------------------------------

   IA       0.569805          0.000000    1.000000    0.000000
   IB       1.143183          0.000000    0.000000    1.000000
   IC       1.712988          1.000000    0.000000    0.000000


 Rotational constants
 --------------------

@    The molecule is planar.

               A                   B                   C

         886932.7187         442080.5572         295027.6853 MHz
           29.584891           14.746220            9.841064 cm-1


  Vibrational Frequencies and IR Intensities
  ------------------------------------------

  mode   irrep        frequency             IR intensity
  ============================================================
                  cm-1       hartrees     km/mol   (D/A)**2/amu
  ------------------------------------------------------------
   2      A1     4121.02    0.018777     14.847   0.3514
   3      A1     1745.87    0.007955     96.504   2.2838

   1      B2     4222.25    0.019238     92.088   2.1793



  Normal Coordinates (bohrs*amu**(1/2)):
  --------------------------------------


                1  4222     2  4121     3  1746 
  ----------------------------------------------

    O_a    x    0.000000    0.000000    0.000000
    O_a    y   -0.068333    0.000000   -0.000000
    O_a    z   -0.000000   -0.048529   -0.068131

    H_a _1 x    0.000000    0.000000    0.000000
    H_a _1 y    0.542251    0.573698   -0.408643
    H_a _1 z    0.406236    0.385098    0.540643

    H_a _2 x    0.000000    0.000000    0.000000
    H_a _2 y    0.542251   -0.573698    0.408643
    H_a _2 z   -0.406236    0.385098    0.540643



  Analysis in redundant internal coordinates
  ------------------------------------------



                          Expanded array of atoms (Bohr)
                          ------------------------------


               Column   1     Column   2     Column   3     Column   4
       1       8.00000000     0.00000000     0.00000000     0.45117955
       2       1.00000000     0.00000000     1.42325148     1.51724304
       3       1.00000000     0.00000000    -1.42325148     1.51724304
    ==== End of matrix output ====


                          Redundant internal coordinates
                          ------------------------------

           (Auxiliary bonds are not printed at this print level.)

       1   Interfragment bond           1   2               0.94099 Ang.
       2   Interfragment bond           1   3               0.94099 Ang.
       3   Regular angle                2   1   3           106.321 deg.

 Total number of redundant internal coordinates:     3


                          Normal coordinates (internal)
                          -----------------------------


                1  4222     2  4121     3  1746 
  ----------------------------------------------

    1 stre      0.732235    0.719133    0.037897
    2 stre     -0.732235    0.719133    0.037897
    3 bend     -0.000000   -0.003518   -0.823543



  Dipole Gradient in Normal Coordinate Basis (D/(A*amu**(1/2)))
  -------------------------------------------------------------


  mode           dMA/dQi        dMB/dQi        dMC/dQi
  ----------------------------------------------------
   1            0.000000       1.476253       0.000000
   2            0.000000      -0.000000       0.592763
   3            0.000000       0.000000       1.511230



                              Total Molecular Energy
                              ----------------------

             electronic     vibrational           total    energy 

             -76.061272        0.022985      -76.038287    Hartrees
           -16693519.40         5044.57    -16688474.83    cm-1
             -199698.84           60.35      -199638.49    kJ/mol
              -47729.17           14.42       -47714.74    kcal/mol


                          Molecular Partition Functions
                          -----------------------------

 Qtran is evaluated per mol at 1 atm. pressure.
 Qrot does not include symmetry numbers.
 Qvib does not include zero point energies
 (i.e., energy scale has vibrational ground state as zero).


 Temp.(K)  Translational     Rotational    Vibrational      Total

    50.00     3.4600D+04           6.06         1.0000   2.098417D+05
   100.00     1.9573D+05          16.41         1.0000   3.212671D+06
   200.00     1.1072D+06          45.38         1.0000   5.024455D+07
   273.15     2.4136D+06          71.98         1.0001   1.737507D+08
   298.15     3.0043D+06          81.97         1.0002   2.463164D+08
   300.00     3.0511D+06          82.73         1.0002   2.524657D+08
   400.00     6.2633D+06         126.87         1.0019   7.961353D+08
   500.00     1.0942D+07         176.90         1.0066   1.948364D+09
   600.00     1.7260D+07         232.17         1.0155   4.069459D+09
   700.00     2.5375D+07         292.25         1.0288   7.629333D+09
   800.00     3.5431D+07         356.76         1.0464   1.322672D+10
   900.00     4.7562D+07         425.42         1.0681   2.161159D+10
  1000.00     6.1895D+07         498.00         1.0937   3.371144D+10
  1500.00     1.7056D+08         913.45         1.2769   1.989452D+11
  2000.00     3.5013D+08        1405.24         1.5485   7.619011D+11


                                +------------------+
                                ! Polarizabilities !
                                +------------------+


 Vibrational polarizabilities calculated acc. to Rinaldi et al.,
 Chem.Phys.Lett. 128 (1986) 177-181.


                        Vibrational Polarizabilities (au)
                        ---------------------------------

                         Ex          Ey          Ez

            Ex       0.000000    0.000000    0.000000
            Ey       0.000000    0.140017   -0.000000
            Ez       0.000000   -0.000000    0.881885



                   Vibrational Polarizabilities (angstroms**3)
                   -------------------------------------------

                         Ex          Ey          Ez

            Ex       0.000000    0.000000    0.000000
            Ey       0.000000    0.020748   -0.000000
            Ez       0.000000   -0.000000    0.130682



                   Vibrational Polarizabilities (angstroms**3)
                   -------------------------------------------

               (Along principal axes of moments of inertia)

                         EA          EB          EC

            EA       0.020748   -0.000000    0.000000
            EB      -0.000000    0.130682    0.000000
            EC       0.000000    0.000000    0.000000



 Vibrational mean polarization :    0.1275 cm**3 mol**-1


 CPU time statistics for ABACUS
 ------------------------------

 TWOTEX     00:00:03      26 %
 RHSIDE     00:00:02      19 %
 RESPON     00:00:02      25 %
 LINRES     00:00:03      26 %
 REST       00:00:01      11 %

 TOTAL      00:00:10     100 %


  Total CPU  time used in ABACUS:   9.93 seconds
  Total wall time used in ABACUS:  10.10 seconds


                   .-------------------------------------------.
                   | End of Static Property Section (ABACUS) - |
                   `-------------------------------------------'

  Total CPU  time used in DALTON:  53.13 seconds
  Total wall time used in DALTON:  53.92 seconds

 
     Date and time (Linux)  : Thu Dec 11 09:31:56 2025
     Host name              : xm061                                   
