

     ************************************************************************
     *************** Dalton - An Electronic Structure Program ***************
     ************************************************************************

    This is output from DALTON release Dalton2020.0 (2020)
         ( Web site: http://daltonprogram.org )

   ----------------------------------------------------------------------------

    NOTE:
     
    Dalton is an experimental code for the evaluation of molecular
    properties using (MC)SCF, DFT, CI, and CC wave functions.
    The authors accept no responsibility for the performance of
    the code or for the correctness of the results.
     
    The code (in whole or part) is provided under a licence and
    is not to be reproduced for further distribution without
    the written permission of the authors or their representatives.
     
    See the home page "http://daltonprogram.org" for further information.
     
    If results obtained with this code are published,
    the appropriate citations would be both of:
     
       K. Aidas, C. Angeli, K. L. Bak, V. Bakken, R. Bast,
       L. Boman, O. Christiansen, R. Cimiraglia, S. Coriani,
       P. Dahle, E. K. Dalskov, U. Ekstroem,
       T. Enevoldsen, J. J. Eriksen, P. Ettenhuber, B. Fernandez,
       L. Ferrighi, H. Fliegl, L. Frediani, K. Hald, A. Halkier,
       C. Haettig, H. Heiberg, T. Helgaker, A. C. Hennum,
       H. Hettema, E. Hjertenaes, S. Hoest, I.-M. Hoeyvik,
       M. F. Iozzi, B. Jansik, H. J. Aa. Jensen, D. Jonsson,
       P. Joergensen, J. Kauczor, S. Kirpekar,
       T. Kjaergaard, W. Klopper, S. Knecht, R. Kobayashi, H. Koch,
       J. Kongsted, A. Krapp, K. Kristensen, A. Ligabue,
       O. B. Lutnaes, J. I. Melo, K. V. Mikkelsen, R. H. Myhre,
       C. Neiss, C. B. Nielsen, P. Norman, J. Olsen,
       J. M. H. Olsen, A. Osted, M. J. Packer, F. Pawlowski,
       T. B. Pedersen, P. F. Provasi, S. Reine, Z. Rinkevicius,
       T. A. Ruden, K. Ruud, V. Rybkin, P. Salek, C. C. M. Samson,
       A. Sanchez de Meras, T. Saue, S. P. A. Sauer,
       B. Schimmelpfennig, K. Sneskov, A. H. Steindal,
       K. O. Sylvester-Hvid, P. R. Taylor, A. M. Teale,
       E. I. Tellgren, D. P. Tew, A. J. Thorvaldsen, L. Thoegersen,
       O. Vahtras, M. A. Watson, D. J. D. Wilson, M. Ziolkowski
       and H. Agren,
       "The Dalton quantum chemistry program system",
       WIREs Comput. Mol. Sci. 2014, 4:269–284 (doi: 10.1002/wcms.1172)
     
    and
     
       Dalton, a molecular electronic structure program,
       Release Dalton2020.0 (2020), see http://daltonprogram.org
   ----------------------------------------------------------------------------

    Authors in alphabetical order (Major contribution(s) in parenthesis):

  Kestutis Aidas,           Vilnius University,           Lithuania   (QM/MM)
  Celestino Angeli,         University of Ferrara,        Italy       (NEVPT2)
  Keld L. Bak,              UNI-C,                        Denmark     (AOSOPPA, non-adiabatic coupling, magnetic properties)
  Vebjoern Bakken,          University of Oslo,           Norway      (DALTON; geometry optimizer, symmetry detection)
  Radovan Bast,             UiT The Arctic U. of Norway,  Norway      (DALTON installation and execution frameworks)
  Pablo Baudin,             University of Valencia,       Spain       (Cholesky excitation energies)
  Linus Boman,              NTNU,                         Norway      (Cholesky decomposition and subsystems)
  Bruno N. Cabral Tenorio,  Technical Univ. of Denmark,   Denmark     (Lanczos-based CC methods)
  Ove Christiansen,         Aarhus University,            Denmark     (CC module)
  Renzo Cimiraglia,         University of Ferrara,        Italy       (NEVPT2)
  Sonia Coriani,            Technical Univ. of Denmark,   Denmark     (CC and RESPONS modules)
  Janusz Cukras,            University of Warsaw,         Poland      (MChD in RESPONS)
  Paal Dahle,               University of Oslo,           Norway      (Parallelization)
  Erik K. Dalskov,          UNI-C,                        Denmark     (SOPPA)
  Thomas Enevoldsen,        Univ. of Southern Denmark,    Denmark     (SOPPA)
  Janus J. Eriksen,         Aarhus University,            Denmark     (Polarizable embedding, TDA)
  Rasmus Faber,             Technical Univ. of Denmark,   Denmark     (Vib.avg. NMR w. SOPPA, parallel AO-SOPPA, CVS-CC and EOMCC)
  Tobias Fahleson,          KTH Stockholm,                Sweden      (Damped cubic response)
  Berta Fernandez,          U. of Santiago de Compostela, Spain       (Doublet spin, ESR in RESPONS)
  Lara Ferrighi,            Aarhus University,            Denmark     (PCM Cubic response)
  Heike Fliegl,             University of Oslo,           Norway      (CCSD(R12))
  Luca Frediani,            UiT The Arctic U. of Norway,  Norway      (PCM)
  Emmanuel Fromager,        Univ. Strasbourg,             France      (MC-srDFT)
  Bin Gao,                  UiT The Arctic U. of Norway,  Norway      (Gen1Int library)
  Andre S. P. Gomes,        CNRS/Universite de Lille,     France      (Frozen density embedding)
  Christof Haettig,         Ruhr-University Bochum,       Germany     (CC module)
  Kasper Hald,              Aarhus University,            Denmark     (CC module)
  Asger Halkier,            Aarhus University,            Denmark     (CC module)
  Frederik Beyer Hansen,    University of Copenhagen,     Denmark     (Parallel AO-SOPPA)
  Erik D. Hedegaard,        Univ. of Southern Denmark,    Denmark     (Polarizable embedding, QM/MM, and MC-srDFT)
  Hanne Heiberg,            University of Oslo,           Norway      (Geometry analysis, selected one-electron integrals)
  Trygve Helgaker,          University of Oslo,           Norway      (DALTON; ABACUS, ERI, DFT modules, London, and much more)
  Alf Christian Hennum,     University of Oslo,           Norway      (Parity violation)
  Hinne Hettema,            University of Auckland,       New Zealand (Quadratic response in RESPONS; SIRIUS supersymmetry)
  Eirik Hjertenaes,         NTNU,                         Norway      (Cholesky decomposition)
  Pi A. B. Haase,           University of Copenhagen,     Denmark     (Triplet AO-SOPPA)
  Maria Francesca Iozzi,    University of Oslo,           Norway      (RPA)
  Christoph Jacob           TU Braunschweig               Germany     (Frozen density embedding)
  Brano Jansik              Technical Univ. of Ostrava    Czech Rep.  (DFT cubic response)
  Hans Joergen Aa. Jensen,  Univ. of Southern Denmark,    Denmark     (DALTON; SIRIUS, RESPONS, ABACUS, MC-srDFT, and much more)
  Dan Jonsson,              UiT The Arctic U. of Norway,  Norway      (Cubic response in RESPONS module)
  Poul Joergensen,          Aarhus University,            Denmark     (RESPONS, ABACUS, and CC modules)
  Maciej Kaminski,          University of Warsaw,         Poland      (CPPh in RESPONS)
  Joanna Kauczor,           Linkoeping University,        Sweden      (Complex polarization propagator (CPP) module)
  Sheela Kirpekar,          Univ. of Southern Denmark,    Denmark     (Mass-velocity & Darwin integrals)
  Erik Kjellgren,           Univ. of Southern Denmark,    Denmark     (MC-srDFT)
  Wim Klopper,              KIT Karlsruhe,                Germany     (R12 code in CC, SIRIUS, and ABACUS modules)
  Stefan Knecht,            ETH Zurich,                   Switzerland (Parallel CI and MCSCF, MC-srDFT)
  Rika Kobayashi,           Australian National Univ.,    Australia   (DIIS in CC, London in MCSCF)
  Henrik Koch,              NTNU,                         Norway      (CC module, Cholesky decomposition)
  Jacob Kongsted,           Univ. of Southern Denmark,    Denmark     (Polarizable embedding, polarizable density embedding, QM/MM)
  Andrea Ligabue,           University of Modena,         Italy       (CTOCD, AOSOPPA)
  Nanna H. List             Univ. of Southern Denmark,    Denmark     (Polarizable embedding)
  Ola B. Lutnaes,           University of Oslo,           Norway      (DFT Hessian)
  Juan I. Melo,             University of Buenos Aires,   Argentina   (LRESC, Relativistic Effects on NMR Shieldings)
  Kurt V. Mikkelsen,        University of Copenhagen,     Denmark     (MC-SCRF and QM/MM)
  Rolf H. Myhre,            NTNU,                         Norway      (Subsystems and CC3)
  Christian Neiss,          Univ. Erlangen-Nuernberg,     Germany     (CCSD(R12))
  Christian B. Nielsen,     University of Copenhagen,     Denmark     (QM/MM)
  Patrick Norman,           KTH Stockholm,                Sweden      (Cubic response and complex frequency response in RESPONS)
  Jeppe Olsen,              Aarhus University,            Denmark     (SIRIUS CI/density modules)
  Jogvan Magnus H. Olsen,   Aarhus University,            Denmark     (Polarizable embedding and polarizable density embedding)
  Anders Osted,             Copenhagen University,        Denmark     (QM/MM)
  Martin J. Packer,         University of Sheffield,      UK          (SOPPA)
  Filip Pawlowski,          Kazimierz Wielki University,  Poland      (CC3)
  Morten N. Pedersen,       Univ. of Southern Denmark,    Denmark     (Polarizable embedding)
  Thomas B. Pedersen,       University of Oslo,           Norway      (Cholesky decomposition)
  Patricio F. Provasi,      University of Northeastern,   Argentina   (Analysis of coupling constants in localized orbitals)
  Peter Reinholdt,          Univ. of Southern Denmark,    Denmark     (Polarizable embedding and polarizable density embedding)
  Zilvinas Rinkevicius,     KTH Stockholm,                Sweden      (open-shell DFT, ESR)
  Elias Rudberg,            KTH Stockholm,                Sweden      (DFT grid and basis info)
  Torgeir A. Ruden,         University of Oslo,           Norway      (Numerical derivatives in ABACUS)
  Kenneth Ruud,             UiT The Arctic U. of Norway,  Norway      (DALTON; ABACUS magnetic properties and much more)
  Pawel Salek,              KTH Stockholm,                Sweden      (DALTON; DFT code)
  Claire C. M. Samson       University of Karlsruhe       Germany     (Boys localization, r12 integrals in ERI)
  Alfredo Sanchez de Meras, University of Valencia,       Spain       (CC module, Cholesky decomposition)
  Trond Saue,               Paul Sabatier University,     France      (direct Fock matrix construction)
  Stephan P. A. Sauer,      University of Copenhagen,     Denmark     (SOPPA(CCSD), SOPPA prop., AOSOPPA, vibrational g-factors)
  Bernd Schimmelpfennig,    Forschungszentrum Karlsruhe,  Germany     (AMFI module)
  Anna K. Schnack-Petersen, University of Copenhagen,     Denmark     (RPA(D) and HRPA(D) properties in AOSOPPA)
  Kristian Sneskov,         Aarhus University,            Denmark     (Polarizable embedding, QM/MM)
  Arnfinn H. Steindal,      UiT The Arctic U. of Norway,  Norway      (parallel QM/MM, polarizable embedding)
  Casper Steinmann,         Aalborg University,           Denmark     (QFIT, polarizable embedding)
  K. O. Sylvester-Hvid,     University of Copenhagen,     Denmark     (MC-SCRF)
  Peter R. Taylor,          VLSCI/Univ. of Melbourne,     Australia   (Symmetry handling ABACUS, integral transformation)
  Andrew M. Teale,          University of Nottingham,     England     (DFT-AC, DFT-D)
  David P. Tew,             University of Bristol,        England     (CCSD(R12))
  Julien Toulouse,          Sorbonne Univ.,               France      (MC-srDFT)
  Olav Vahtras,             KTH Stockholm,                Sweden      (Triplet response, spin-orbit, ESR, TDDFT, open-shell DFT)
  Lucas Visscher,           Vrije Universiteit Amsterdam, Netherlands (Frozen density embedding)
  David J. Wilson,          La Trobe University,          Australia   (DFT Hessian and DFT magnetizabilities)
  Hans Agren,               KTH Stockholm,                Sweden      (SIRIUS module, RESPONS, MC-SCRF solvation)
 --------------------------------------------------------------------------------

     Date and time (Linux)  : Mon Dec 15 18:11:21 2025
     Host name              : xm051                                   

 * Work memory size             :  1310720000 =  9.766 gigabytes.

 * Directories for basis set searches:
   1) /gpfs/projects/rjh/adrian/development/RamanDB/RamanBenchDB/H2O/dalton
   2) /gpfs/projects/rjh/adrian/dalton/build/basis


Compilation information
-----------------------

 Who compiled             | ahurtado
 Host                     | milan2
 System                   | Linux-5.14.0-427.42.1.el9_4.x86_64
 CMake generator          | Unix Makefiles
 Processor                | x86_64
 64-bit integers          | OFF
 MPI                      | ON
 Fortran compiler         | /gpfs/software/openmpi/milan/gcc13.2/4.1.6/bin/mpi
                          | f90
 Fortran compiler version | GNU Fortran (GCC) 13.2.0
 C compiler               | /gpfs/software/openmpi/milan/gcc13.2/4.1.6/bin/mpi
                          | cc
 C compiler version       | gcc (GCC) 13.2.0
 C++ compiler             | /gpfs/software/openmpi/milan/gcc13.2/4.1.6/bin/mpi
                          | cxx
 C++ compiler version     | unknown
 BLAS                     | /gpfs/software/intel/oneAPI/2024_2/mkl/2024.2/lib/
                          | intel64/libmkl_gf_lp64.so;/gpfs/software/intel/one
                          | API/2024_2/mkl/2024.2/lib/intel64/libmkl_sequentia
                          | l.so;/gpfs/software/intel/oneAPI/2024_2/mkl/2024.2
                          | /lib/intel64/libmkl_core.so;/usr/lib64/libpthread.
                          | a;/usr/lib64/libm.so
 LAPACK                   | /gpfs/software/intel/oneAPI/2024_2/mkl/2024.2/lib/
                          | intel64/libmkl_lapack95_lp64.a;/gpfs/software/inte
                          | l/oneAPI/2024_2/mkl/2024.2/lib/intel64/libmkl_gf_l
                          | p64.so
 Static linking           | OFF
 Last Git revision        | 66052b3af5ea7225e31178bf9a8b031913c72190
 Git branch               | (HEAD detached at Dalton2020.0)
 Configuration time       | 2025-04-10 16:02:31.569498

 * MPI parallel run using 576 processes.


   Content of the .dal input file
 ----------------------------------

**DALTON INPUT
.WALK
*WALK
.NUMERI
**WAVE FUNCTIONS
.HF
*SCF INPUT
.THRESH
1.0D-8
**START
.RAMAN
*ABALNR
.THRESH
1.0D-7
.FREQUE
6
0.0 0.02 0.04 0.06 0.08 0.1
**EACH STEP
.RAMAN
*ABALNR
.THRESH
1.0D-7
.FREQUE
6
0.0 0.02 0.04 0.06 0.08 0.1
**PROPERTIES
.RAMAN
.VIBANA
*RESPONSE
.THRESH
1.0D-6
*ABALNR
.THRESH
1.0D-7
.FREQUE
6
0.0 0.02 0.04 0.06 0.08 0.1
*VIBANA
.PRINT
100
**END OF DALTON INPUT


   Content of the .mol file
 ----------------------------

BASIS
d-aug-cc-pVTZ
blah
blah
Atomtype=2 Angstrom Charge=0 Nosymmetry
Charge=8 Atoms=1
O_a 0.000000000000 0.063141690000 0.000000000000
Charge=1 Atoms=2
H_a 0.753095980000 -0.501052230000 0.000000000000
H_b -0.753095980000 -0.501052230000 0.000000000000


       *******************************************************************
       *********** Output from DALTON general input processing ***********
       *******************************************************************

 --------------------------------------------------------------------------------
   Overall default print level:    0
   Print level for DALTON.STAT:    1

    Parallel calculation using MPI
@   Geometry optimization
      Starting at iteration:    0
      Maximum number of steps:   20
    AO-direct calculation (in sections where implemented)
    "Old" integral transformation used (limited to max 255 basis functions)
 --------------------------------------------------------------------------------


                .-------------------------------------------------.
                | Commencing geometry optimization based on .WALK |
                `-------------------------------------------------'



     @@---------- Geometry walk iteration number:    0 ----------




   ****************************************************************************
   *************** Output of molecule and basis set information ***************
   ****************************************************************************


    The two title cards from your ".mol" input:
    ------------------------------------------------------------------------
 1: blah                                                                    
 2: blah                                                                    
    ------------------------------------------------------------------------

  Coordinates are entered in Angstrom and converted to atomic units.
          - Conversion factor : 1 bohr = 0.52917721 A

  Atomic type no.    1
  --------------------
  Nuclear charge:   8.00000
  Number of symmetry independent centers:    1
  Number of basis sets to read;    2
  Basis set file used for this atomic type with Z =   8 :
     "/gpfs/projects/rjh/adrian/dalton/build/basis/aug-cc-pVTZ"

  Atomic type no.    2
  --------------------
  Nuclear charge:   1.00000
  Number of symmetry independent centers:    2
  Number of basis sets to read;    2
  Basis set file used for this atomic type with Z =   1 :
     "/gpfs/projects/rjh/adrian/dalton/build/basis/aug-cc-pVTZ"


                         SYMGRP: Point group information
                         -------------------------------

@    Point group: C1 


                                 Isotopic Masses
                                 ---------------

                           O_a        15.994915
                           H_a         1.007825
                           H_b         1.007825

                       Total mass:    18.010565 amu
                       Natural abundance:  99.730 %

 Center-of-mass coordinates (a.u.):    0.000000    0.000000    0.000000
 Center-of-mass coordinates (Angs):    0.000000    0.000000    0.000000


  Atoms and basis sets
  --------------------

  Number of atom types :    2
  Total number of atoms:    3

  Basis set used is "d-aug-cc-pVTZ" from the basis set library.

  label    atoms   charge   prim   cont     basis
  ----------------------------------------------------------------------
  O_          1    8.0000    74    62      [12s7p4d3f|6s5p4d3f]                               
  H_          2    1.0000    34    32      [7s4p3d|5s4p3d]                                    
  ----------------------------------------------------------------------
  total:      3   10.0000   142   126
  ----------------------------------------------------------------------
  Spherical harmonic basis used.

  Threshold for neglecting AO integrals:  1.00D-12


  Cartesian Coordinates (a.u.)
  ----------------------------

  Total number of coordinates:    9
  O_a     :     1  x   0.0000000000    2  y   0.1193205012    3  z   0.0000000000
  H_a     :     4  x   1.4231451480    5  y  -0.9468514890    6  z   0.0000000000
  H_b     :     7  x  -1.4231451480    8  y  -0.9468514890    9  z   0.0000000000


   Interatomic separations (in Angstrom):
   --------------------------------------

            O_a         H_a         H_b   
            ------      ------      ------
 O_a   :    0.000000
 H_a   :    0.940993    0.000000
 H_b   :    0.940993    1.506192    0.000000


  Max    interatomic separation is    1.5062 Angstrom (    2.8463 Bohr)
  between atoms    3 and    2, "H_b   " and "H_a   ".

  Min HX interatomic separation is    0.9410 Angstrom (    1.7782 Bohr)


  Bond distances (Angstrom):
  --------------------------

                  atom 1     atom 2       distance
                  ------     ------       --------
  bond distance:  H_a        O_a          0.940993
  bond distance:  H_b        O_a          0.940993


  Bond angles (degrees):
  ----------------------

                  atom 1     atom 2     atom 3         angle
                  ------     ------     ------         -----
  bond angle:     H_a        O_a        H_b          106.321




 Principal moments of inertia (u*A**2) and principal axes
 --------------------------------------------------------

   IA       0.569805          1.000000    0.000000    0.000000
   IB       1.143183          0.000000    1.000000    0.000000
   IC       1.712988          0.000000    0.000000    1.000000


 Rotational constants
 --------------------

@    The molecule is planar.

               A                   B                   C

         886932.7085         442080.5576         295027.6843 MHz
           29.584891           14.746220            9.841064 cm-1


@  Nuclear repulsion energy :    9.349098510327 Hartree


                     .---------------------------------------.
                     | Starting in Integral Section (HERMIT) |
                     `---------------------------------------'



 ***************************************************************************************
 ****************** Output from **INTEGRALS input processing (HERMIT) ******************
 ***************************************************************************************


 - Using defaults, no **INTEGRALS input found

 Default print level:        1

 Calculation of one-electron Hamiltonian integrals.

 Center of mass  (bohr):      0.000000000000      0.000000003893      0.000000000000
 Operator center (bohr):      0.000000000000      0.000000000000      0.000000000000
 Gauge origin    (bohr):      0.000000000000      0.000000000000      0.000000000000
 Dipole origin   (bohr):      0.000000000000      0.000000000000      0.000000000000


     ************************************************************************
     ************************** Output from HERINT **************************
     ************************************************************************



                      Nuclear contribution to dipole moments
                      --------------------------------------

                 au               Debye          C m (/(10**-30)

      x      0.00000000         0.00000000         0.00000000
      y     -0.93913897        -2.38705301        -7.96235176
      z      0.00000000         0.00000000         0.00000000


  Total CPU  time used in HERMIT:   0.12 seconds
  Total wall time used in HERMIT:   0.13 seconds


                        .----------------------------------.
                        | End of Integral Section (HERMIT) |
                        `----------------------------------'



                   .--------------------------------------------.
                   | Starting in Wave Function Section (SIRIUS) |
                   `--------------------------------------------'


 *** Output from Huckel module :

     Using EWMO model:          T
     Using EHT  model:          F
     Number of Huckel orbitals each symmetry:    7

 EWMO - Energy Weighted Maximum Overlap - is a Huckel type method,
        which normally is better than Extended Huckel Theory.
 Reference: Linderberg and Ohrn, Propagators in Quantum Chemistry (Wiley, 1973)

 Huckel EWMO eigenvalues for symmetry :  1
          -20.685239      -1.621266      -0.782312      -0.684828      -0.616200
           -0.227455      -0.162600

 **********************************************************************
 *SIRIUS* a direct, restricted step, second order MCSCF program       *
 **********************************************************************

 
     Date and time (Linux)  : Mon Dec 15 18:11:23 2025
     Host name              : xm051                                   

 Title lines from ".mol" input file:
     blah                                                                    
     blah                                                                    

 Print level on unit LUPRI =   2 is   0
 Print level on unit LUW4  =   2 is   5

@    Restricted, closed shell Hartree-Fock calculation.
 Fock matrices are calculated directly and in parallel without use of integrals on disk.

 Initial molecular orbitals are obtained according to
 ".MOSTART EWMO  " input option

     Wave function specification
     ============================
@    Wave function type        --- HF ---
@    Number of closed shell electrons          10
@    Number of electrons in active shells       0
@    Total charge of the molecule               0

@    Spin multiplicity and 2 M_S                1         0
@    Total number of symmetries                 1 (point group: C1 )
@    Reference state symmetry                   1 (irrep name : A  )

     Orbital specifications
     ======================
@    Abelian symmetry species          All |    1
@                                          |  A  
                                       --- |  ---
@    Occupied SCF orbitals               5 |    5
@    Secondary orbitals                121 |  121
@    Total number of orbitals          126 |  126
@    Number of basis functions         126 |  126

     Optimization information
     ========================
@    Number of configurations                 1
@    Number of orbital rotations            605
     ------------------------------------------
@    Total number of variables              606

     Maximum number of Fock   iterations      0
     Maximum number of DIIS   iterations     60
     Maximum number of QC-SCF iterations     60
     Threshold for SCF convergence     1.00D-08


 ***********************************************
 ***** DIIS acceleration of SCF iterations *****
 ***********************************************

 C1-DIIS algorithm; max error vectors =    8

 Iter      Total energy        Error norm    Delta(E)  DIIS dim.
 -----------------------------------------------------------------------------
   1  Screening settings (-IFTHRS, JTDIIS, DIFDEN, times)   -8    1    T  4.61D+00  4.66D+00
@  1    -75.8681238430        1.86764D+00   -7.59D+01    1
      Virial theorem: -V/T =      1.996428
@    MULPOP   O_a    -0.64; H_a     0.32; H_b     0.32; 
   1  Level shift: doubly occupied orbital energies shifted by -2.00D-01
 -----------------------------------------------------------------------------
   2  Screening settings (-IFTHRS, JTDIIS, DIFDEN, times)   -8    2    T  1.35D-01  1.37D-01
@  2    -76.0497377501        4.02243D-01   -1.82D-01    2
      Virial theorem: -V/T =      2.002659
@    MULPOP   O_a    -0.46; H_a     0.23; H_b     0.23; 
   2  Level shift: doubly occupied orbital energies shifted by -5.00D-02
 -----------------------------------------------------------------------------
   3  Screening settings (-IFTHRS, JTDIIS, DIFDEN, times)   -8    3    T  1.31D-01  1.32D-01
@  3    -76.0599558697        1.06314D-01   -1.02D-02    3
      Virial theorem: -V/T =      1.999790
@    MULPOP   O_a    -0.42; H_a     0.21; H_b     0.21; 
   3  Level shift: doubly occupied orbital energies shifted by -2.50D-02
 -----------------------------------------------------------------------------
   4  Screening settings (-IFTHRS, JTDIIS, DIFDEN, times)  -10    4    F  1.32D-01  1.34D-01
@  4    -76.0611306599        4.49579D-02   -1.17D-03    4
      Virial theorem: -V/T =      2.001191
@    MULPOP   O_a    -0.41; H_a     0.21; H_b     0.21; 
   4  Level shift: doubly occupied orbital energies shifted by -1.25D-02
 -----------------------------------------------------------------------------
   5  Screening settings (-IFTHRS, JTDIIS, DIFDEN, times)  -10    5    T  1.34D-01  1.35D-01
@  5    -76.0612487631        1.13554D-02   -1.18D-04    5
      Virial theorem: -V/T =      2.000368
@    MULPOP   O_a    -0.43; H_a     0.21; H_b     0.21; 
 -----------------------------------------------------------------------------
   6  Screening settings (-IFTHRS, JTDIIS, DIFDEN, times)  -10    6    T  1.31D-01  1.31D-01
@  6    -76.0612703121        2.59500D-03   -2.15D-05    6
      Virial theorem: -V/T =      2.000490
@    MULPOP   O_a    -0.43; H_a     0.21; H_b     0.21; 
 -----------------------------------------------------------------------------
   7  Screening settings (-IFTHRS, JTDIIS, DIFDEN, times)  -10    7    T  1.31D-01  1.32D-01
@  7    -76.0612716003        4.01524D-04   -1.29D-06    7
      Virial theorem: -V/T =      2.000511
@    MULPOP   O_a    -0.43; H_a     0.21; H_b     0.21; 
 -----------------------------------------------------------------------------
   8  Screening settings (-IFTHRS, JTDIIS, DIFDEN, times)  -12    8    F  1.31D-01  1.31D-01
@  8    -76.0612716270        6.21706D-05   -2.68D-08    8
      Virial theorem: -V/T =      2.000513
@    MULPOP   O_a    -0.43; H_a     0.21; H_b     0.21; 
 -----------------------------------------------------------------------------
   9  Screening settings (-IFTHRS, JTDIIS, DIFDEN, times)  -15    9    F  1.32D-01  1.33D-01
@  9    -76.0612716276        1.08265D-05   -5.29D-10    8
      Virial theorem: -V/T =      2.000513
@    MULPOP   O_a    -0.43; H_a     0.21; H_b     0.21; 
 -----------------------------------------------------------------------------
  10  Screening settings (-IFTHRS, JTDIIS, DIFDEN, times)  -15   10    T  1.29D-01  1.30D-01
@ 10    -76.0612716276        1.68962D-06   -1.31D-11    8
      Virial theorem: -V/T =      2.000513
@    MULPOP   O_a    -0.43; H_a     0.21; H_b     0.21; 
 -----------------------------------------------------------------------------
  11  Screening settings (-IFTHRS, JTDIIS, DIFDEN, times)  -15   11    T  1.33D-01  1.34D-01
@ 11    -76.0612716276        2.32454D-07   -4.55D-13    8
      Virial theorem: -V/T =      2.000513
@    MULPOP   O_a    -0.43; H_a     0.21; H_b     0.21; 
 -----------------------------------------------------------------------------
  12  Screening settings (-IFTHRS, JTDIIS, DIFDEN, times)  -15   12    T  1.35D-01  1.36D-01
@ 12    -76.0612716276        4.60609D-08   -4.26D-14    8
      Virial theorem: -V/T =      2.000513
@    MULPOP   O_a    -0.43; H_a     0.21; H_b     0.21; 
 -----------------------------------------------------------------------------
  13  Screening settings (-IFTHRS, JTDIIS, DIFDEN, times)  -15   13    T  1.31D-01  1.33D-01
@ 13    -76.0612716276        1.07616D-08    0.00D+00    8
      Virial theorem: -V/T =      2.000513
@    MULPOP   O_a    -0.43; H_a     0.21; H_b     0.21; 
 -----------------------------------------------------------------------------
  14  Screening settings (-IFTHRS, JTDIIS, DIFDEN, times)  -15   14    T  1.29D-01  1.29D-01
@ 14    -76.0612716276        2.11029D-09   -9.95D-14    8

@ *** DIIS converged in  14 iterations !
@     Converged SCF energy, gradient:    -76.061271627576    2.11D-09
    - total time used in SIRFCK :              0.00 seconds


 *** SCF orbital energy analysis ***

 Only the 20 lowest virtual orbital energies printed in each symmetry.

 Number of electrons :   10
 Orbital occupations :    5

 Sym       Hartree-Fock orbital energies

1 A     -20.56337906    -1.36079315    -0.73042464    -0.58444927    -0.51120672
          0.00689007     0.01197186     0.03009452     0.03491849     0.04175548
          0.04401375     0.07002728     0.07256793     0.07484337     0.08757530
          0.08820018     0.10107076     0.10776842     0.11474046     0.18393038
          0.18837075     0.19113126     0.20102870     0.21091298     0.21805169

    E(LUMO) :     0.00689007 au (symmetry 1)
  - E(HOMO) :    -0.51120672 au (symmetry 1)
  ------------------------------------------
    gap     :     0.51809679 au

 --- Writing SIRIFC interface file

 CPU and wall time for SCF :       6.483       6.549


                       .-----------------------------------.
                       | --- Final results from SIRIUS --- |
                       `-----------------------------------'


@    Spin multiplicity:           1
@    Spatial symmetry:            1 ( irrep  A   in C1  )
@    Total charge of molecule:    0

@    Final HF energy:             -76.061271627576                 
@    Nuclear repulsion:             9.349098510327
@    Electronic energy:           -85.410370137903

@    Final gradient norm:           0.000000002110

 
     Date and time (Linux)  : Mon Dec 15 18:11:29 2025
     Host name              : xm051                                   

File label for MO orbitals:  15Dec25   FOCKDIIS

 (Only coefficients > 0.0100 are printed.)

 Molecular orbitals for symmetry species 1  (A  )
 ------------------------------------------------

    Orbital         1        2        3        4        5        6        7
   1 O_a :1s    -0.9989   0.0088  -0.0000   0.0046   0.0000   0.0004  -0.0000
   2 O_a :1s     0.0023  -0.8652  -0.0000   0.3091   0.0000   0.0410  -0.0000
   4 O_a :1s    -0.0005   0.0378  -0.0000   0.2540  -0.0000   0.1198  -0.0000
   5 O_a :1s    -0.0025  -0.0638   0.0000   0.0945   0.0000   0.7573  -0.0000
   6 O_a :1s    -0.0015  -0.0620   0.0000  -0.0097   0.0000   4.4656   0.0000
   7 O_a :2px    0.0000   0.0000  -0.7382   0.0000   0.0000   0.0000   0.0155
   8 O_a :2py    0.0048   0.1190  -0.0000   0.8136   0.0000  -0.0312  -0.0000
   9 O_a :2pz   -0.0000  -0.0000  -0.0000   0.0000  -0.9141   0.0000  -0.0000
  10 O_a :2px   -0.0000   0.0000   0.0265  -0.0000  -0.0000  -0.0000   0.0069
  11 O_a :2py   -0.0037   0.0055   0.0000  -0.0169  -0.0000  -0.0045   0.0000
  13 O_a :2px    0.0000  -0.0000   0.1300   0.0000  -0.0000   0.0000   0.1505
  14 O_a :2py   -0.0017  -0.0336  -0.0000  -0.0866  -0.0000  -0.0188   0.0000
  15 O_a :2pz    0.0000   0.0000   0.0000  -0.0000  -0.0288  -0.0000   0.0000
  16 O_a :2px   -0.0000  -0.0000   0.0185  -0.0000   0.0000   0.0000   0.5523
  17 O_a :2py   -0.0002  -0.0050  -0.0000   0.0080   0.0000   0.0152   0.0000
  18 O_a :2pz   -0.0000  -0.0000  -0.0000   0.0000  -0.0669   0.0000  -0.0000
  19 O_a :2px    0.0000  -0.0000  -0.0028   0.0000  -0.0000   0.0000   1.5100
  20 O_a :2py   -0.0000   0.0011  -0.0000   0.0012  -0.0000   0.0524   0.0000
  22 O_a :3d2-   0.0000  -0.0000   0.0128  -0.0000   0.0000   0.0000  -0.0000
  27 O_a :3d2-  -0.0000   0.0000   0.0205   0.0000  -0.0000   0.0000  -0.0069
  28 O_a :3d1-   0.0000   0.0000   0.0000  -0.0000   0.0144  -0.0000   0.0000
  31 O_a :3d2+   0.0001  -0.0010   0.0000   0.0145   0.0000   0.0003  -0.0000
  32 O_a :3d2-  -0.0000   0.0000  -0.0220  -0.0000  -0.0000  -0.0000  -0.0405
  34 O_a :3d0    0.0002  -0.0077  -0.0000  -0.0188   0.0000   0.0036   0.0000
  36 O_a :3d2+  -0.0004   0.0049  -0.0000   0.0164  -0.0000   0.0002   0.0000
  37 O_a :3d2-  -0.0000   0.0000  -0.0066   0.0000   0.0000  -0.0000  -0.0497
  39 O_a :3d0    0.0002  -0.0007  -0.0000   0.0015  -0.0000  -0.0115  -0.0000
  41 O_a :3d2+  -0.0004  -0.0016  -0.0000   0.0021  -0.0000   0.0300   0.0000
  63 H_a :1s    -0.0022  -0.3843  -0.6009  -0.3519   0.0000  -0.0021   0.0074
  64 H_a :1s     0.0005   0.1059   0.0458  -0.0361   0.0000  -0.0052  -0.0824
  65 H_a :1s     0.0023   0.1734   0.2229   0.0677   0.0000  -0.2229  -0.2785
  66 H_a :1s     0.0009   0.0379   0.0986   0.0042  -0.0000  -2.1024  -3.5245
  67 H_a :1s     0.0000   0.0006   0.0028   0.0003   0.0000  -0.7184  -6.5965
  68 H_a :2px    0.0001   0.0115   0.0112   0.0106   0.0000  -0.0015   0.0006
  69 H_a :2py   -0.0001  -0.0079  -0.0136   0.0014  -0.0000   0.0008   0.0003
  70 H_a :2pz    0.0000   0.0000   0.0000  -0.0000  -0.0114  -0.0000   0.0000
  71 H_a :2px    0.0006   0.0079   0.0216   0.0359   0.0000   0.0060   0.0105
  72 H_a :2py   -0.0003  -0.0055  -0.0277  -0.0042  -0.0000  -0.0046  -0.0187
  73 H_a :2pz   -0.0000  -0.0000  -0.0000   0.0000  -0.0278   0.0000  -0.0000
  74 H_a :2px    0.0003  -0.0143  -0.0358  -0.0044   0.0000   0.0562  -0.0635
  75 H_a :2py    0.0006   0.0136   0.0154   0.0139   0.0000  -0.0767  -0.0755
  77 H_a :2px   -0.0000  -0.0074  -0.0238  -0.0025   0.0000   0.3153   0.1839
  78 H_a :2py    0.0002   0.0064   0.0073  -0.0003  -0.0000  -0.3502  -0.4207
  79 H_a :2pz   -0.0000  -0.0000  -0.0000   0.0000   0.0104   0.0000  -0.0000
  89 H_a :3d2+  -0.0002   0.0006   0.0042  -0.0031  -0.0000  -0.0009   0.0103
  90 H_a :3d2-  -0.0001  -0.0027  -0.0062  -0.0019  -0.0000   0.0296   0.0104
  92 H_a :3d0   -0.0001  -0.0023  -0.0043  -0.0027   0.0000   0.0412  -0.0040
  94 H_a :3d2+  -0.0001   0.0012   0.0040   0.0008  -0.0000  -0.0032   0.0362
  95 H_b :1s    -0.0022  -0.3843   0.6009  -0.3519  -0.0000  -0.0021  -0.0074
  96 H_b :1s     0.0005   0.1059  -0.0458  -0.0361   0.0000  -0.0052   0.0824
  97 H_b :1s     0.0023   0.1734  -0.2229   0.0677   0.0000  -0.2229   0.2785
  98 H_b :1s     0.0009   0.0379  -0.0986   0.0042  -0.0000  -2.1024   3.5245
  99 H_b :1s     0.0000   0.0006  -0.0028   0.0003  -0.0000  -0.7184   6.5965
 100 H_b :2px   -0.0001  -0.0115   0.0112  -0.0106  -0.0000   0.0015   0.0006
 101 H_b :2py   -0.0001  -0.0079   0.0136   0.0014  -0.0000   0.0008  -0.0003
 102 H_b :2pz    0.0000   0.0000   0.0000  -0.0000  -0.0114  -0.0000   0.0000
 103 H_b :2px   -0.0006  -0.0079   0.0216  -0.0359   0.0000  -0.0060   0.0105
 104 H_b :2py   -0.0003  -0.0055   0.0277  -0.0042   0.0000  -0.0046   0.0187
 105 H_b :2pz   -0.0000  -0.0000  -0.0000   0.0000  -0.0278   0.0000  -0.0000
 106 H_b :2px   -0.0003   0.0143  -0.0358   0.0044  -0.0000  -0.0562  -0.0635
 107 H_b :2py    0.0006   0.0136  -0.0154   0.0139  -0.0000  -0.0767   0.0755
 109 H_b :2px    0.0000   0.0074  -0.0238   0.0025  -0.0000  -0.3153   0.1839
 110 H_b :2py    0.0002   0.0064  -0.0073  -0.0003  -0.0000  -0.3502   0.4207
 111 H_b :2pz   -0.0000  -0.0000  -0.0000   0.0000   0.0104   0.0000  -0.0000
 121 H_b :3d2+  -0.0002   0.0006  -0.0042  -0.0031  -0.0000  -0.0009  -0.0103
 122 H_b :3d2-   0.0001   0.0027  -0.0062   0.0019   0.0000  -0.0296   0.0104
 124 H_b :3d0   -0.0001  -0.0023   0.0043  -0.0027   0.0000   0.0412   0.0040
 126 H_b :3d2+  -0.0001   0.0012  -0.0040   0.0008  -0.0000  -0.0032  -0.0362

    Orbital         8        9       10       11       12       13       14
   2 O_a :1s    -0.0391   0.0000  -0.0851  -0.0000   0.0000  -0.0091   0.0000
   4 O_a :1s     0.5337  -0.0000   0.1544   0.0000  -0.0000   0.0683  -0.0000
   5 O_a :1s     2.7303   0.0000   1.5560   0.0000  -0.0000   1.8971  -0.0000
   6 O_a :1s    17.5748   0.0000  10.2453   0.0000  -0.0000  12.1760  -0.0000
   7 O_a :2px    0.0000   0.0000   0.0000  -0.0576  -0.0354   0.0000   0.0000
   8 O_a :2py    0.0647   0.0000   0.0375   0.0000   0.0000   0.0027   0.0000
   9 O_a :2pz   -0.0000  -0.0431  -0.0000   0.0000   0.0000   0.0000  -0.0000
  10 O_a :2px   -0.0000  -0.0000  -0.0000   0.0223  -0.0026  -0.0000  -0.0000
  11 O_a :2py   -0.0241  -0.0000  -0.0048  -0.0000  -0.0000  -0.0053  -0.0000
  13 O_a :2px    0.0000  -0.0000  -0.0000   0.4142  -0.4555  -0.0000  -0.0000
  14 O_a :2py   -0.2457  -0.0000   0.1332   0.0000   0.0000   0.1378   0.0000
  15 O_a :2pz    0.0000   0.0843   0.0000  -0.0000  -0.0000  -0.0000   0.0000
  16 O_a :2px    0.0000   0.0000  -0.0000   1.4644  -1.5070  -0.0000  -0.0000
  17 O_a :2py   -0.7468   0.0000   0.7921   0.0000   0.0000   0.7664   0.0000
  18 O_a :2pz   -0.0000   0.8051  -0.0000   0.0000   0.0000   0.0000  -0.0000
  19 O_a :2px    0.0000  -0.0000  -0.0000   4.7351  -2.0184   0.0000  -0.0000
  20 O_a :2py   -2.4335  -0.0000   1.3832  -0.0000   0.0000   0.3303   0.0000
  21 O_a :2pz    0.0000   2.3476   0.0000  -0.0000  -0.0000  -0.0000   0.0000
  27 O_a :3d2-   0.0000  -0.0000  -0.0000  -0.0173   0.0169  -0.0000  -0.0000
  29 O_a :3d0   -0.0126   0.0000   0.0029  -0.0000  -0.0000  -0.0002   0.0000
  32 O_a :3d2-   0.0000  -0.0000  -0.0000  -0.0984   0.4014   0.0000   0.0000
  33 O_a :3d1-  -0.0000  -0.0162  -0.0000   0.0000   0.0000   0.0000  -0.0000
  34 O_a :3d0   -0.0387   0.0000   0.0569   0.0000   0.0000  -0.0728   0.0000
  35 O_a :3d1+   0.0000   0.0000   0.0000  -0.0000  -0.0000   0.0000  -0.2100
  36 O_a :3d2+   0.0026  -0.0000   0.0044  -0.0000  -0.0000   0.2536  -0.0000
  37 O_a :3d2-  -0.0000   0.0000  -0.0000  -0.1063   0.5528   0.0000   0.0000
  38 O_a :3d1-  -0.0000  -0.0610  -0.0000   0.0000   0.0000   0.0000   0.0000
  39 O_a :3d0   -0.0262  -0.0000   0.0372   0.0000   0.0000  -0.1729   0.0000
  40 O_a :3d1+   0.0000  -0.0000   0.0000  -0.0000  -0.0000  -0.0000  -0.3842
  41 O_a :3d2+  -0.0120  -0.0000   0.1241  -0.0000  -0.0000   0.5891  -0.0000
  49 O_a :4f3-  -0.0019   0.0000   0.0048  -0.0000   0.0000  -0.0110   0.0000
  50 O_a :4f2-   0.0000   0.0000   0.0000  -0.0000  -0.0000  -0.0000   0.0123
  55 O_a :4f3+   0.0000  -0.0000  -0.0000   0.0034   0.0188   0.0000  -0.0000
  56 O_a :4f3-  -0.0112   0.0000   0.0266   0.0000   0.0000  -0.0792   0.0000
  57 O_a :4f2-  -0.0000  -0.0000  -0.0000   0.0000   0.0000  -0.0000   0.0725
  58 O_a :4f1-   0.0023  -0.0000  -0.0135  -0.0000  -0.0000   0.0044  -0.0000
  60 O_a :4f1+  -0.0000  -0.0000   0.0000  -0.0232   0.0692   0.0000   0.0000
  61 O_a :4f2+   0.0000   0.0148   0.0000  -0.0000  -0.0000  -0.0000   0.0000
  62 O_a :4f3+   0.0000  -0.0000  -0.0000   0.0099   0.0905   0.0000   0.0000
  63 H_a :1s    -0.0001   0.0000   0.0126  -0.0080  -0.0020  -0.0164  -0.0000
  64 H_a :1s    -0.1630   0.0000   0.1129  -0.2170   0.4584  -0.1177   0.0000
  65 H_a :1s    -1.0367   0.0000  -0.2100  -0.8311   0.7621  -1.1159   0.0000
  66 H_a :1s    -8.7514  -0.0000  -4.4915 -13.1461  16.0472  -6.4814   0.0000
  67 H_a :1s    -0.5938   0.0000  -0.6303  -6.2974   0.7186  -0.0359   0.0000
  71 H_a :2px    0.0721   0.0000   0.0051   0.0360  -0.0472  -0.0406   0.0000
  72 H_a :2py   -0.0445  -0.0000  -0.0131  -0.0603  -0.0129  -0.0755  -0.0000
  73 H_a :2pz   -0.0000  -0.0115  -0.0000   0.0000   0.0000   0.0000   0.0804
  74 H_a :2px    0.2549   0.0000   0.2205  -0.1009   0.3145  -0.5556   0.0000
  75 H_a :2py   -0.1268   0.0000  -0.3830  -0.2820  -0.7519  -0.5036  -0.0000
  76 H_a :2pz   -0.0000  -0.1883  -0.0000   0.0000   0.0000   0.0000   0.9077
  77 H_a :2px    0.8009   0.0000   1.3006   1.1961  -2.4448  -1.8462  -0.0000
  78 H_a :2py   -0.5062  -0.0000  -1.5873  -1.6597  -2.4097  -1.4611   0.0000
  79 H_a :2pz   -0.0000  -0.9807  -0.0000   0.0000   0.0000   0.0000   3.4580
  85 H_a :3d2-   0.0174   0.0000   0.0312   0.0086   0.0504   0.0039   0.0000
  86 H_a :3d1-  -0.0000  -0.0099  -0.0000   0.0000   0.0000   0.0000   0.0492
  87 H_a :3d0    0.0122   0.0000   0.0114  -0.0033   0.0471  -0.0098   0.0000
  88 H_a :3d1+   0.0000   0.0086   0.0000  -0.0000  -0.0000  -0.0000  -0.0510
  89 H_a :3d2+  -0.0144  -0.0000   0.0044   0.0305   0.0089   0.0606  -0.0000
  90 H_a :3d2-   0.0210  -0.0000   0.1540   0.0639   0.4897   0.0155   0.0000
  91 H_a :3d1-  -0.0000  -0.1346  -0.0000   0.0000   0.0000   0.0000   0.1113
  92 H_a :3d0   -0.0291   0.0000   0.1755  -0.0050   0.0778  -0.1342   0.0000
  93 H_a :3d1+   0.0000   0.1024   0.0000  -0.0000  -0.0000  -0.0000  -0.5117
  94 H_a :3d2+  -0.0222  -0.0000  -0.0134   0.1012   0.0594   0.4286  -0.0000
  95 H_b :1s    -0.0001  -0.0000   0.0126   0.0080   0.0020  -0.0164  -0.0000
  96 H_b :1s    -0.1630   0.0000   0.1129   0.2170  -0.4584  -0.1177   0.0000
  97 H_b :1s    -1.0367   0.0000  -0.2100   0.8311  -0.7621  -1.1159   0.0000
  98 H_b :1s    -8.7514  -0.0000  -4.4915  13.1461 -16.0472  -6.4814   0.0000
  99 H_b :1s    -0.5938  -0.0000  -0.6303   6.2974  -0.7186  -0.0359   0.0000
 103 H_b :2px   -0.0721   0.0000  -0.0051   0.0360  -0.0472   0.0406  -0.0000
 104 H_b :2py   -0.0445   0.0000  -0.0131   0.0603   0.0129  -0.0755  -0.0000
 105 H_b :2pz   -0.0000  -0.0115  -0.0000   0.0000   0.0000   0.0000  -0.0804
 106 H_b :2px   -0.2549  -0.0000  -0.2205  -0.1009   0.3145   0.5556  -0.0000
 107 H_b :2py   -0.1268  -0.0000  -0.3830   0.2820   0.7519  -0.5036   0.0000
 108 H_b :2pz   -0.0000  -0.1883  -0.0000   0.0000   0.0000   0.0000  -0.9077
 109 H_b :2px   -0.8009  -0.0000  -1.3006   1.1961  -2.4448   1.8462   0.0000
 110 H_b :2py   -0.5062  -0.0000  -1.5873   1.6597   2.4097  -1.4611   0.0000
 111 H_b :2pz   -0.0000  -0.9807  -0.0000   0.0000   0.0000   0.0000  -3.4580
 117 H_b :3d2-  -0.0174  -0.0000  -0.0312   0.0086   0.0504  -0.0039  -0.0000
 118 H_b :3d1-  -0.0000  -0.0099  -0.0000   0.0000   0.0000   0.0000  -0.0492
 119 H_b :3d0    0.0122   0.0000   0.0114   0.0033  -0.0471  -0.0098   0.0000
 120 H_b :3d1+  -0.0000  -0.0086  -0.0000   0.0000   0.0000   0.0000  -0.0510
 121 H_b :3d2+  -0.0144  -0.0000   0.0044  -0.0305  -0.0089   0.0606  -0.0000
 122 H_b :3d2-  -0.0210   0.0000  -0.1540   0.0639   0.4897  -0.0155   0.0000
 123 H_b :3d1-  -0.0000  -0.1346  -0.0000   0.0000   0.0000   0.0000  -0.1113
 124 H_b :3d0   -0.0291   0.0000   0.1755   0.0050  -0.0778  -0.1342   0.0000
 125 H_b :3d1+  -0.0000  -0.1024  -0.0000   0.0000   0.0000   0.0000  -0.5117
 126 H_b :3d2+  -0.0222  -0.0000  -0.0134  -0.1012  -0.0594   0.4286  -0.0000

    Orbital        15
   9 O_a :2pz    0.0895
  12 O_a :2pz   -0.0137
  15 O_a :2pz    0.5295
  18 O_a :2pz    3.2705
  21 O_a :2pz    2.9922
  33 O_a :3d1-  -0.1705
  38 O_a :3d1-  -0.4812
  52 O_a :4f0   -0.0138
  59 O_a :4f0   -0.0628
  61 O_a :4f2+   0.0113
  73 H_a :2pz   -0.0968
  76 H_a :2pz   -0.9565
  79 H_a :2pz   -2.5866
  86 H_a :3d1-  -0.0511
  88 H_a :3d1+   0.0758
  91 H_a :3d1-  -0.1556
  93 H_a :3d1+   0.3009
 105 H_b :2pz   -0.0968
 108 H_b :2pz   -0.9565
 111 H_b :2pz   -2.5866
 118 H_b :3d1-  -0.0511
 120 H_b :3d1+  -0.0758
 123 H_b :3d1-  -0.1556
 125 H_b :3d1+  -0.3009

  Total CPU  time used in SIRIUS :   6.57 seconds
  Total wall time used in SIRIUS :   6.65 seconds

 
     Date and time (Linux)  : Mon Dec 15 18:11:29 2025
     Host name              : xm051                                   


                     .---------------------------------------.
                     | End of Wave Function Section (SIRIUS) |
                     `---------------------------------------'



 Changes of defaults for WALK:
 -----------------------------


 Walk type: Numerical differentiation                 

Maximum number of geometry steps reset in numerical differentiation to    19




        *****************************************************************
        ******** Output from **START input processing for ABACUS ********
        *****************************************************************



 The following molecular properties will be calculated in this run:
 ------------------------------------------------------------------

 Default print level:        0

      Geometry optimization
      Direct calculation - no two-electron integrals written or read.
      Two-electron integrals will be calculated in parallel
      Vibrational Raman intensities
      Natural orbital connection is used
      for perturbation dependent basis sets.
      Linear response properties


 Changes of defaults for *ABALNR:
 --------------------------------

 Number of frequencies          :   6
 Frequencies                    :  0.000000  0.020000  0.040000  0.060000  0.080000
                                   0.100000
 Print level                    :   0
 Lin Resp convergence threshold :  1.00D-07
 Max. Lin Resp iterations       :  60

 Center of mass dipole origin  :    0.000000    0.000000    0.000000

 Center of mass gauge origin   :    0.000000    0.000000    0.000000


 Changes of defaults for WALK:
 -----------------------------


 Walk type: Numerical differentiation                 

Maximum number of geometry steps reset in numerical differentiation to    19




                 .------------------------------------------------.
                 | Starting in Static Property Section (ABACUS) - |
                 `------------------------------------------------'


 
     Date and time (Linux)  : Mon Dec 15 18:11:29 2025
     Host name              : xm051                                   

 Skip of TROINV is ignored because all GD vectors needed.



     ***********************************************************************
     ****************** Solving Linear Response Equations ******************
     ***********************************************************************

  Time used in LNRABA     is       9.67 seconds


   ***************************************************************************
   ************************ FINAL RESULTS from ABACUS ************************
   ***************************************************************************


 
     Date and time (Linux)  : Mon Dec 15 18:11:39 2025
     Host name              : xm051                                   


                             Molecular geometry (au)
                             -----------------------

 O_a        0.0000000000            0.1193205012            0.0000000000
 H_a        1.4231451480           -0.9468514890            0.0000000000
 H_b       -1.4231451480           -0.9468514890            0.0000000000





                        Molecular wave function and energy
                        ----------------------------------

     Spatial symmetry   1 ( A   )
     Spin multiplicity  1
     2 * M_S            0
     State number       1
     Total charge       0

     Total energy        -76.0612716276 au (Hartrees)
                         -2069.73248576 eV
                           -199698.8379 kJ/mol
                            -47729.1678 kcal/mol


                   Scalar Breit-Pauli relativistic corrections
                   -------------------------------------------

     Darwin correction:                          0.1998006328 au
     Mass-velocity correction:                  -0.2513365254 au

     Total relativistic correction:             -0.0515358925 au ( 0.0678%)
     Non-relativistic + relativistic energy:   -76.1128075201 au



      (Note that these corrections are NOT included in the results below.)


                                  Dipole moment
                                  -------------

                 au               Debye          C m (/(10**-30)
              0.762780           1.938793           6.467116


                             Dipole moment components
                             ------------------------

                 au               Debye          C m (/(10**-30)

      x      0.00000000         0.00000000         0.00000000
      y     -0.76277979        -1.93879271        -6.46711637
      z     -0.00000000        -0.00000000        -0.00000000


   Units:   1 a.u. =   2.54175 Debye 
            1 a.u. =   8.47835 (10**-30) C m (SI)




    ++++++++++++++++++++++++++++++++++++++++++++++++++++++++++++++++++++++++++
    ++++++++++++++++++ Frequency dependent polarizabilities ++++++++++++++++++
    ++++++++++++++++++++++++++++++++++++++++++++++++++++++++++++++++++++++++++


          Polarizability tensor for frequency     0.000000 au
          ----------------------------------------------------
                            Ex             Ey             Ez

                Ex    8.900414     -2.6338379E-13 -4.5432847E-15
                Ey  -4.0458922E-13   8.299016     -2.3804178E-15
                Ez  -4.5298508E-15 -1.5080152E-15   7.844729    

Isotropic polarizability:   8.348053    

          Polarizability tensor for frequency     0.020000 au
          ----------------------------------------------------
                            Ex             Ey             Ez

                Ex    8.908270     -2.6309323E-13 -4.5634728E-15
                Ey  -4.0529104E-13   8.307881     -2.3934757E-15
                Ez  -4.5499479E-15 -1.5140652E-15   7.855282    

Isotropic polarizability:   8.357144    

          Polarizability tensor for frequency     0.040000 au
          ----------------------------------------------------
                            Ex             Ey             Ez

                Ex    8.931946     -2.6210256E-13 -4.6249741E-15
                Ey  -4.0727433E-13   8.334657     -2.4334584E-15
                Ez  -4.6112230E-15 -1.5325654E-15   7.887269    

Isotropic polarizability:   8.384624    

          Polarizability tensor for frequency     0.060000 au
          ----------------------------------------------------
                            Ex             Ey             Ez

                Ex    8.971775     -2.6033952E-13 -4.7306968E-15
                Ey  -4.1058936E-13   8.379899     -2.5029142E-15
                Ez  -4.7167470E-15 -1.5646193E-15   7.941713    

Isotropic polarizability:   8.431129    

          Polarizability tensor for frequency     0.080000 au
          ----------------------------------------------------
                            Ex             Ey             Ez

                Ex    9.028323     -2.5767678E-13 -4.8858271E-15
                Ey  -4.1532315E-13   8.444569     -2.6065254E-15
                Ez  -4.8720625E-15 -1.6122525E-15   8.020436    

Isotropic polarizability:   8.497776    

          Polarizability tensor for frequency     0.100000 au
          ----------------------------------------------------
                            Ex             Ey             Ez

                Ex    9.102419     -2.5392064E-13 -5.0984017E-15
                Ey  -4.2160511E-13   8.530104     -2.7518848E-15
                Ez  -5.0859280E-15 -1.6787477E-15   8.126270    

Isotropic polarizability:   8.586264    


   Interatomic separations (in Angstrom):
   --------------------------------------

            O_a         H_a         H_b   
            ------      ------      ------
 O_a   :    0.000000
 H_a   :    0.940993    0.000000
 H_b   :    0.940993    1.506192    0.000000


  Max    interatomic separation is    1.5062 Angstrom (    2.8463 Bohr)
  between atoms    3 and    2, "H_b   " and "H_a   ".

  Min HX interatomic separation is    0.9410 Angstrom (    1.7782 Bohr)


  Bond distances (Angstrom):
  --------------------------

                  atom 1     atom 2       distance
                  ------     ------       --------
  bond distance:  H_a        O_a          0.940993
  bond distance:  H_b        O_a          0.940993


  Bond angles (degrees):
  ----------------------

                  atom 1     atom 2     atom 3         angle
                  ------     ------     ------         -----
  bond angle:     H_a        O_a        H_b          106.321



 Largest deviation from orthonormality of OMOs: 4.15023E-12
 - found for element   17  59


     ************************************************************************
     ****************** ABACUS - NUMERICAL DIFFERENTIATION ******************
     ************************************************************************

 Energy at reference geometry:   -76.0612716276


  Analytical gradient at reference geometry
  -----------------------------------------


     Zero matrix.
    ==== End of matrix output ====


  Analytical Hessian at reference geometry
  ----------------------------------------


     Zero matrix.
    ==== End of matrix output ====


    *************************************************************************
    ************** ABACUS - Numerical differentiation for VROA **************
    *************************************************************************



 CPU time statistics for ABACUS
 ------------------------------

 LNRABA     00:00:10      96 %

 TOTAL      00:00:10     100 %


  Total CPU  time used in ABACUS:  10.06 seconds
  Total wall time used in ABACUS:  10.17 seconds


                   .-------------------------------------------.
                   | End of Static Property Section (ABACUS) - |
                   `-------------------------------------------'


@  Geometry walk step no.   0:  Molecular energy =    -76.061272   Molecular gradient =  0.000000


     @@---------- Geometry walk iteration number:    1 ----------




 **************************************************************************************
 ****************** Output of molecule and basis set info suppressed ******************
 **************************************************************************************



                     .---------------------------------------.
                     | Starting in Integral Section (HERMIT) |
                     `---------------------------------------'



                      Nuclear contribution to dipole moments
                      --------------------------------------

                 au               Debye          C m (/(10**-30)

      x      0.00080000         0.00203340         0.00678268
      y     -0.93913897        -2.38705301        -7.96235176
      z      0.00000000         0.00000000         0.00000000


  Total CPU  time used in HERMIT:   0.11 seconds
  Total wall time used in HERMIT:   0.12 seconds


                        .----------------------------------.
                        | End of Integral Section (HERMIT) |
                        `----------------------------------'



                   .--------------------------------------------.
                   | Starting in Wave Function Section (SIRIUS) |
                   `--------------------------------------------'

* Read MO coefficients from SIRIUS.RST with label "NEWORB  " and header info: 15Dec25  (HFOPT) 

 **********************************************************************
 *SIRIUS* a direct, restricted step, second order MCSCF program       *
 **********************************************************************

 (Wave function specification suppressed here, see output above for initial geometry.)


 ***********************************************
 ***** DIIS acceleration of SCF iterations *****
 ***********************************************

 C1-DIIS algorithm; max error vectors =    8

 Iter      Total energy        Error norm    Delta(E)  DIIS dim.
 -----------------------------------------------------------------------------
   1  Screening settings (-IFTHRS, JTDIIS, DIFDEN, times)  -15    1    T  1.41D-01  1.42D-01
@  1    -76.0612360103        5.36268D-02    3.56D-05    1
      Virial theorem: -V/T =      2.000512
@    MULPOP   O_a    -0.43; H_a     0.32; H_b     0.11; 
 -----------------------------------------------------------------------------
   2  Screening settings (-IFTHRS, JTDIIS, DIFDEN, times)  -10    2    F  1.34D-01  1.35D-01
@  2    -76.0612714963        2.20818D-03   -3.55D-05    2
      Virial theorem: -V/T =      2.000513
@    MULPOP   O_a    -0.43; H_a     0.22; H_b     0.21; 
 -----------------------------------------------------------------------------
   3  Screening settings (-IFTHRS, JTDIIS, DIFDEN, times)  -10    3    T  1.35D-01  1.36D-01
@  3    -76.0612716230        9.78384D-05   -1.27D-07    3
      Virial theorem: -V/T =      2.000513
@    MULPOP   O_a    -0.43; H_a     0.21; H_b     0.21; 
 -----------------------------------------------------------------------------
   4  Screening settings (-IFTHRS, JTDIIS, DIFDEN, times)  -15    4    F  1.27D-01  1.28D-01
@  4    -76.0612716234        7.71419D-06   -4.36D-10    4
      Virial theorem: -V/T =      2.000513
@    MULPOP   O_a    -0.43; H_a     0.21; H_b     0.21; 
 -----------------------------------------------------------------------------
   5  Screening settings (-IFTHRS, JTDIIS, DIFDEN, times)  -15    5    T  1.33D-01  1.34D-01
@  5    -76.0612716234        2.05895D-06   -5.71D-12    5
      Virial theorem: -V/T =      2.000513
@    MULPOP   O_a    -0.43; H_a     0.21; H_b     0.21; 
 -----------------------------------------------------------------------------
   6  Screening settings (-IFTHRS, JTDIIS, DIFDEN, times)  -15    6    T  1.29D-01  1.30D-01
@  6    -76.0612716234        9.64987D-07   -3.98D-13    6
      Virial theorem: -V/T =      2.000513
@    MULPOP   O_a    -0.43; H_a     0.21; H_b     0.21; 
 -----------------------------------------------------------------------------
   7  Screening settings (-IFTHRS, JTDIIS, DIFDEN, times)  -15    7    T  1.30D-01  1.30D-01
@  7    -76.0612716234        1.87592D-07   -7.11D-14    7
      Virial theorem: -V/T =      2.000513
@    MULPOP   O_a    -0.43; H_a     0.21; H_b     0.21; 
 -----------------------------------------------------------------------------
   8  Screening settings (-IFTHRS, JTDIIS, DIFDEN, times)  -15    8    T  1.30D-01  1.30D-01
@  8    -76.0612716234        3.17377D-08   -4.26D-14    8
      Virial theorem: -V/T =      2.000513
@    MULPOP   O_a    -0.43; H_a     0.21; H_b     0.21; 
 -----------------------------------------------------------------------------
   9  Screening settings (-IFTHRS, JTDIIS, DIFDEN, times)  -15    9    T  1.34D-01  1.36D-01
@  9    -76.0612716234        8.24507D-09    5.68D-14    8

@ *** DIIS converged in   9 iterations !
@     Converged SCF energy, gradient:    -76.061271623402    8.25D-09
    - total time used in SIRFCK :              0.00 seconds


 *** SCF orbital energy analysis ***

 Only the 20 lowest virtual orbital energies printed in each symmetry.

 Number of electrons :   10
 Orbital occupations :    5

 Sym       Hartree-Fock orbital energies

1 A     -20.56337906    -1.36079316    -0.73042464    -0.58444927    -0.51120672
          0.00689007     0.01197186     0.03009452     0.03491849     0.04175548
          0.04401375     0.07002728     0.07256793     0.07484337     0.08757530
          0.08820018     0.10107076     0.10776842     0.11474046     0.18393038
          0.18837075     0.19113126     0.20102870     0.21091298     0.21805169

    E(LUMO) :     0.00689007 au (symmetry 1)
  - E(HOMO) :    -0.51120672 au (symmetry 1)
  ------------------------------------------
    gap     :     0.51809679 au

 --- Writing SIRIFC interface file


 Check ratio for geometry walk with converged SCF :



 --- step control for geometry walk (ABACUS interface)


 (SIRSTP) Close to convergence, ratio set to one.
 Energy difference; actual and predicted:    4.17400D-09    0.00000D+00


 *** GEOMETRY WALK STEP ACCEPTED.


 CPU and wall time for SCF :       1.306       1.316


                       .-----------------------------------.
                       | --- Final results from SIRIUS --- |
                       `-----------------------------------'


@    Spin multiplicity:           1
@    Spatial symmetry:            1 ( irrep  A   in C1  )
@    Total charge of molecule:    0

@    Final HF energy:             -76.061271623402                 
@    Nuclear repulsion:             9.349098523438
@    Electronic energy:           -85.410370146840

@    Final gradient norm:           0.000000008245

 
     Date and time (Linux)  : Mon Dec 15 18:11:41 2025
     Host name              : xm051                                   

  Total CPU  time used in SIRIUS :   1.32 seconds
  Total wall time used in SIRIUS :   1.33 seconds

 
     Date and time (Linux)  : Mon Dec 15 18:11:41 2025
     Host name              : xm051                                   


                     .---------------------------------------.
                     | End of Wave Function Section (SIRIUS) |
                     `---------------------------------------'



        *****************************************************************
        ******** Output from **EACH  input processing for ABACUS ********
        *****************************************************************



 The following molecular properties will be calculated in this run:
 ------------------------------------------------------------------

 Default print level:       -2

      Geometry optimization
      Direct calculation - no two-electron integrals written or read.
      Two-electron integrals will be calculated in parallel
      Vibrational Raman intensities
      Natural orbital connection is used
      for perturbation dependent basis sets.
      Linear response properties


 Changes of defaults for *ABALNR:
 --------------------------------

 Number of frequencies          :   6
 Frequencies                    :  0.000000  0.020000  0.040000  0.060000  0.080000
                                   0.100000
 Print level                    :  -2
 Lin Resp convergence threshold :  1.00D-07
 Max. Lin Resp iterations       :  60

 Center of mass dipole origin  :    0.000089    0.000000    0.000000

 Center of mass gauge origin   :    0.000089    0.000000    0.000000


                 .------------------------------------------------.
                 | Starting in Static Property Section (ABACUS) - |
                 `------------------------------------------------'


 
     Date and time (Linux)  : Mon Dec 15 18:11:41 2025
     Host name              : xm051                                   
  Time used in LNRABA     is       9.66 seconds


   ***************************************************************************
   ************************ FINAL RESULTS from ABACUS ************************
   ***************************************************************************


 
     Date and time (Linux)  : Mon Dec 15 18:11:51 2025
     Host name              : xm051                                   

 Largest deviation from orthonormality of OMOs: 3.31657E-12
 - found for element   33  31


     ************************************************************************
     ****************** ABACUS - NUMERICAL DIFFERENTIATION ******************
     ************************************************************************

 Coordinate displaced in this calculation:    O_a  x
 Displacement:                               +     0.0001000000


                       +------------------------------------+
                       ! Analytical and numerical gradients !
                       +------------------------------------+


               analytical          numerical          difference
 ---------------------------------------------------------------------------
 O_a  x    0.000000000000000   0.000041739980361  -0.000041739980361 forward 


                       +-----------------------------------+
                       ! Analytical and numerical Hessians !
                       +-----------------------------------+



  Analytical Hessian
  ------------------


     Zero matrix.
    ==== End of matrix output ====


  Numerical Hessian
  -----------------


     Zero matrix.
    ==== End of matrix output ====


  Difference between analytical and numerical Hessians
  ----------------------------------------------------


     Zero matrix.
    ==== End of matrix output ====


    *************************************************************************
    ************** ABACUS - Numerical differentiation for VROA **************
    *************************************************************************



 CPU time statistics for ABACUS
 ------------------------------

 LNRABA     00:00:10      95 %

 TOTAL      00:00:10     100 %


  Total CPU  time used in ABACUS:  10.15 seconds
  Total wall time used in ABACUS:  10.25 seconds


                   .-------------------------------------------.
                   | End of Static Property Section (ABACUS) - |
                   `-------------------------------------------'


@  Geometry walk step no.   1:  Molecular energy =    -76.061272   Molecular gradient =  0.000000


     @@---------- Geometry walk iteration number:    2 ----------




 **************************************************************************************
 ****************** Output of molecule and basis set info suppressed ******************
 **************************************************************************************



                     .---------------------------------------.
                     | Starting in Integral Section (HERMIT) |
                     `---------------------------------------'



                      Nuclear contribution to dipole moments
                      --------------------------------------

                 au               Debye          C m (/(10**-30)

      x     -0.00080000        -0.00203340        -0.00678268
      y     -0.93913897        -2.38705301        -7.96235176
      z      0.00000000         0.00000000         0.00000000


  Total CPU  time used in HERMIT:   0.11 seconds
  Total wall time used in HERMIT:   0.12 seconds


                        .----------------------------------.
                        | End of Integral Section (HERMIT) |
                        `----------------------------------'



                   .--------------------------------------------.
                   | Starting in Wave Function Section (SIRIUS) |
                   `--------------------------------------------'

* Read MO coefficients from SIRIUS.RST with label "NEWORB  " and header info: 15Dec25  (HFOPT) 

 **********************************************************************
 *SIRIUS* a direct, restricted step, second order MCSCF program       *
 **********************************************************************

 (Wave function specification suppressed here, see output above for initial geometry.)


 ***********************************************
 ***** DIIS acceleration of SCF iterations *****
 ***********************************************

 C1-DIIS algorithm; max error vectors =    8

 Iter      Total energy        Error norm    Delta(E)  DIIS dim.
 -----------------------------------------------------------------------------
   1  Screening settings (-IFTHRS, JTDIIS, DIFDEN, times)  -15    1    T  1.40D-01  1.42D-01
@  1    -76.0611291725        1.07253D-01    1.42D-04    1
      Virial theorem: -V/T =      2.000510
@    MULPOP   O_a    -0.43; H_a     0.01; H_b     0.42; 
 -----------------------------------------------------------------------------
   2  Screening settings (-IFTHRS, JTDIIS, DIFDEN, times)  -10    2    F  1.31D-01  1.32D-01
@  2    -76.0612711146        4.41826D-03   -1.42D-04    2
      Virial theorem: -V/T =      2.000513
@    MULPOP   O_a    -0.43; H_a     0.20; H_b     0.22; 
 -----------------------------------------------------------------------------
   3  Screening settings (-IFTHRS, JTDIIS, DIFDEN, times)  -10    3    T  1.34D-01  1.35D-01
@  3    -76.0612716216        1.95774D-04   -5.07D-07    3
      Virial theorem: -V/T =      2.000513
@    MULPOP   O_a    -0.43; H_a     0.21; H_b     0.21; 
 -----------------------------------------------------------------------------
   4  Screening settings (-IFTHRS, JTDIIS, DIFDEN, times)  -12    4    F  1.28D-01  1.28D-01
@  4    -76.0612716234        1.52806D-05   -1.75D-09    4
      Virial theorem: -V/T =      2.000513
@    MULPOP   O_a    -0.43; H_a     0.21; H_b     0.21; 
 -----------------------------------------------------------------------------
   5  Screening settings (-IFTHRS, JTDIIS, DIFDEN, times)  -15    5    F  1.41D-01  1.43D-01
@  5    -76.0612716234        3.82410D-06   -2.26D-11    5
      Virial theorem: -V/T =      2.000513
@    MULPOP   O_a    -0.43; H_a     0.21; H_b     0.21; 
 -----------------------------------------------------------------------------
   6  Screening settings (-IFTHRS, JTDIIS, DIFDEN, times)  -15    6    T  1.41D-01  1.42D-01
@  6    -76.0612716234        1.73228D-06   -1.58D-12    6
      Virial theorem: -V/T =      2.000513
@    MULPOP   O_a    -0.43; H_a     0.21; H_b     0.21; 
 -----------------------------------------------------------------------------
   7  Screening settings (-IFTHRS, JTDIIS, DIFDEN, times)  -15    7    T  1.32D-01  1.32D-01
@  7    -76.0612716234        3.88943D-07   -1.28D-13    7
      Virial theorem: -V/T =      2.000513
@    MULPOP   O_a    -0.43; H_a     0.21; H_b     0.21; 
 -----------------------------------------------------------------------------
   8  Screening settings (-IFTHRS, JTDIIS, DIFDEN, times)  -15    8    T  1.30D-01  1.31D-01
@  8    -76.0612716234        6.40366D-08   -8.53D-14    8
      Virial theorem: -V/T =      2.000513
@    MULPOP   O_a    -0.43; H_a     0.21; H_b     0.21; 
 -----------------------------------------------------------------------------
   9  Screening settings (-IFTHRS, JTDIIS, DIFDEN, times)  -15    9    T  1.30D-01  1.31D-01
@  9    -76.0612716234        1.61170D-08   -5.68D-14    8
      Virial theorem: -V/T =      2.000513
@    MULPOP   O_a    -0.43; H_a     0.21; H_b     0.21; 
 -----------------------------------------------------------------------------
  10  Screening settings (-IFTHRS, JTDIIS, DIFDEN, times)  -15   10    T  1.34D-01  1.34D-01
@ 10    -76.0612716234        4.19203D-09    1.14D-13    8

@ *** DIIS converged in  10 iterations !
@     Converged SCF energy, gradient:    -76.061271623402    4.19D-09
    - total time used in SIRFCK :              0.00 seconds


 *** SCF orbital energy analysis ***

 Only the 20 lowest virtual orbital energies printed in each symmetry.

 Number of electrons :   10
 Orbital occupations :    5

 Sym       Hartree-Fock orbital energies

1 A     -20.56337906    -1.36079316    -0.73042464    -0.58444927    -0.51120672
          0.00689007     0.01197186     0.03009452     0.03491849     0.04175548
          0.04401375     0.07002728     0.07256793     0.07484337     0.08757530
          0.08820018     0.10107076     0.10776842     0.11474046     0.18393038
          0.18837075     0.19113126     0.20102870     0.21091298     0.21805169

    E(LUMO) :     0.00689007 au (symmetry 1)
  - E(HOMO) :    -0.51120672 au (symmetry 1)
  ------------------------------------------
    gap     :     0.51809679 au

 --- Writing SIRIFC interface file


 Check ratio for geometry walk with converged SCF :



 --- step control for geometry walk (ABACUS interface)


 (SIRSTP) Close to convergence, ratio set to one.
 Energy difference; actual and predicted:    1.42109D-14    0.00000D+00


 *** GEOMETRY WALK STEP ACCEPTED.


 CPU and wall time for SCF :       1.467       1.478


                       .-----------------------------------.
                       | --- Final results from SIRIUS --- |
                       `-----------------------------------'


@    Spin multiplicity:           1
@    Spatial symmetry:            1 ( irrep  A   in C1  )
@    Total charge of molecule:    0

@    Final HF energy:             -76.061271623402                 
@    Nuclear repulsion:             9.349098523438
@    Electronic energy:           -85.410370146840

@    Final gradient norm:           0.000000004192

 
     Date and time (Linux)  : Mon Dec 15 18:11:53 2025
     Host name              : xm051                                   

  Total CPU  time used in SIRIUS :   1.48 seconds
  Total wall time used in SIRIUS :   1.49 seconds

 
     Date and time (Linux)  : Mon Dec 15 18:11:53 2025
     Host name              : xm051                                   


                     .---------------------------------------.
                     | End of Wave Function Section (SIRIUS) |
                     `---------------------------------------'



        *****************************************************************
        ******** Output from **EACH  input processing for ABACUS ********
        *****************************************************************



 The following molecular properties will be calculated in this run:
 ------------------------------------------------------------------

 Default print level:       -2

      Geometry optimization
      Direct calculation - no two-electron integrals written or read.
      Two-electron integrals will be calculated in parallel
      Vibrational Raman intensities
      Natural orbital connection is used
      for perturbation dependent basis sets.
      Linear response properties


 Changes of defaults for *ABALNR:
 --------------------------------

 Number of frequencies          :   6
 Frequencies                    :  0.000000  0.020000  0.040000  0.060000  0.080000
                                   0.100000
 Print level                    :  -2
 Lin Resp convergence threshold :  1.00D-07
 Max. Lin Resp iterations       :  60

 Center of mass dipole origin  :   -0.000089    0.000000    0.000000

 Center of mass gauge origin   :   -0.000089    0.000000    0.000000


                 .------------------------------------------------.
                 | Starting in Static Property Section (ABACUS) - |
                 `------------------------------------------------'


 
     Date and time (Linux)  : Mon Dec 15 18:11:53 2025
     Host name              : xm051                                   
  Time used in LNRABA     is       9.62 seconds


   ***************************************************************************
   ************************ FINAL RESULTS from ABACUS ************************
   ***************************************************************************


 
     Date and time (Linux)  : Mon Dec 15 18:12:03 2025
     Host name              : xm051                                   

 Largest deviation from orthonormality of OMOs: 5.58906E-12
 - found for element   17  31


     ************************************************************************
     ****************** ABACUS - NUMERICAL DIFFERENTIATION ******************
     ************************************************************************

 Coordinate displaced in this calculation:    O_a  x
 Displacement:                               -     0.0001000000


                       +------------------------------------+
                       ! Analytical and numerical gradients !
                       +------------------------------------+


               analytical          numerical          difference
 ---------------------------------------------------------------------------
 O_a  x    0.000000000000000  -0.000000000071054   0.000000000071054 central 

 Largest difference:  7.1D-11




                       +-----------------------------------+
                       ! Analytical and numerical Hessians !
                       +-----------------------------------+



  Analytical Hessian
  ------------------


     Zero matrix.
    ==== End of matrix output ====


  Numerical Hessian
  -----------------


     Zero matrix.
    ==== End of matrix output ====


  Difference between analytical and numerical Hessians
  ----------------------------------------------------


     Zero matrix.
    ==== End of matrix output ====

  Largest difference:  0.0D+00




    *************************************************************************
    ************** ABACUS - Numerical differentiation for VROA **************
    *************************************************************************



 CPU time statistics for ABACUS
 ------------------------------

 LNRABA     00:00:10      95 %
 REST       00:00:01      13 %

 TOTAL      00:00:10     100 %


  Total CPU  time used in ABACUS:  10.10 seconds
  Total wall time used in ABACUS:  10.21 seconds


                   .-------------------------------------------.
                   | End of Static Property Section (ABACUS) - |
                   `-------------------------------------------'


@  Geometry walk step no.   2:  Molecular energy =    -76.061272   Molecular gradient =  0.000000


     @@---------- Geometry walk iteration number:    3 ----------




 **************************************************************************************
 ****************** Output of molecule and basis set info suppressed ******************
 **************************************************************************************



                     .---------------------------------------.
                     | Starting in Integral Section (HERMIT) |
                     `---------------------------------------'



                      Nuclear contribution to dipole moments
                      --------------------------------------

                 au               Debye          C m (/(10**-30)

      x      0.00000000         0.00000000         0.00000000
      y     -0.93833897        -2.38501961        -7.95556908
      z      0.00000000         0.00000000         0.00000000


  Total CPU  time used in HERMIT:   0.11 seconds
  Total wall time used in HERMIT:   0.12 seconds


                        .----------------------------------.
                        | End of Integral Section (HERMIT) |
                        `----------------------------------'



                   .--------------------------------------------.
[...]
       1      -0.00000764     5.16524402     0.00000609     4.49623649    -2.58262784
       2       4.04776163    -0.00000017    -0.00000000    -2.02399308     1.72709193
       3       0.00000000     0.00000000     0.00000007    -0.00000030     0.00000002
       4       4.04782075     0.00000011     0.00000001    -2.02400869     1.72724178
       5      -0.00001894     4.30942023     0.00002612     2.35798518    -2.15454782
       6       0.00000000    -0.00000000     0.42448402    -0.00002818     0.00000039
       7       0.00000000    -0.00000000     0.00000007    -0.00000030     0.00000009
       8       0.00000000    -0.00000000     0.42451157    -0.00002760     0.00000043
       9      -0.00005657     1.18385304     0.00000865     1.17707035    -0.59197088

               Column   6     Column   7     Column   8     Column   9
       1      -0.00001689    -4.49624804    -2.58263424    -0.00001690
       2       0.00002174    -2.02398479    -1.72717762    -0.00002174
       3       0.37012667    -0.00000000     0.00000008    -0.37012705
       4       0.00002013    -2.02399935    -1.72732662    -0.00002012
       5      -0.00002309    -2.35795890    -2.15465474    -0.00002309
       6      -0.21217244     0.00002527     0.00000172    -0.21216883
       7       0.36985360    -0.00000001     0.00000008    -0.36985661
       8      -0.21223795     0.00002417     0.00000160    -0.21224241
       9       0.00002806    -1.17703147    -0.59196191     0.00002806
    ==== End of matrix output ====
  frequency: 0.0400

               Column   1     Column   2     Column   3     Column   4     Column   5
       1      -0.00000765     5.19777082     0.00000620     4.52028480    -2.59889117
       2       4.07926229    -0.00000017    -0.00000000    -2.03974431     1.73780086
       3       0.00000000     0.00000000     0.00000007    -0.00000030     0.00000002
       4       4.07931883     0.00000012     0.00000001    -2.03975596     1.73794954
       5      -0.00001902     4.32875014     0.00002636     2.37753186    -2.16421158
       6       0.00000000    -0.00000000     0.41960397    -0.00002848     0.00000039
       7       0.00000000    -0.00000000     0.00000007    -0.00000030     0.00000009
       8       0.00000000    -0.00000000     0.41962969    -0.00002788     0.00000044
       9      -0.00005706     1.19233887     0.00000874     1.18594626    -0.59621429

               Column   6     Column   7     Column   8     Column   9
       1      -0.00001695    -4.52029635    -2.59889768    -0.00001696
       2       0.00002190    -2.03973594    -1.73788711    -0.00002190
       3       0.36720679    -0.00000000     0.00000008    -0.36720716
       4       0.00002025    -2.03974655    -1.73803493    -0.00002025
       5      -0.00002322    -2.37750539    -2.16431928    -0.00002323
       6      -0.20973054     0.00002555     0.00000173    -0.20972689
       7       0.36692555    -0.00000001     0.00000009    -0.36692852
       8      -0.20980153     0.00002442     0.00000161    -0.20980637
       9       0.00002846    -1.18590698    -0.59620521     0.00002846
    ==== End of matrix output ====
  frequency: 0.0600

               Column   1     Column   2     Column   3     Column   4     Column   5
       1      -0.00000767     5.25275754     0.00000639     4.56090842    -2.62638441
       2       4.13277789    -0.00000017    -0.00000000    -2.06650365     1.75594246
       3       0.00000000     0.00000000     0.00000007    -0.00000030     0.00000002
       4       4.13282986     0.00000012     0.00000001    -2.06650816     1.75608866
       5      -0.00001915     4.36142049     0.00002677     2.41088672    -2.18054474
       6       0.00000000    -0.00000000     0.41098719    -0.00002899     0.00000040
       7       0.00000000    -0.00000000     0.00000007    -0.00000030     0.00000010
       8       0.00000000    -0.00000000     0.41100906    -0.00002836     0.00000044
       9      -0.00005790     1.20716235     0.00000889     1.20132481    -0.60362688

               Column   6     Column   7     Column   8     Column   9
       1      -0.00001705    -4.56091997    -2.62639111    -0.00001706
       2       0.00002216    -2.06649515    -1.75602966    -0.00002216
       3       0.36207190    -0.00000000     0.00000008    -0.36207225
       4       0.00002047    -2.06649863    -1.75617500    -0.00002046
       5      -0.00002345    -2.41085992    -2.18065375    -0.00002345
       6      -0.20541886     0.00002603     0.00000175    -0.20541514
       7       0.36177595    -0.00000001     0.00000009    -0.36177886
       8      -0.20549936     0.00002484     0.00000162    -0.20550486
       9       0.00002914    -1.20128482    -0.60361762     0.00002914
    ==== End of matrix output ====
  frequency: 0.0800

               Column   1     Column   2     Column   3     Column   4     Column   5
       1      -0.00000771     5.33140960     0.00000666     4.61895185    -2.66571026
       2       4.20990989    -0.00000017    -0.00000000    -2.10507189     1.78197754
       3       0.00000000     0.00000000     0.00000007    -0.00000031     0.00000002
       4       4.20995483     0.00000012     0.00000001    -2.10506515     1.78211904
       5      -0.00001933     4.40814267     0.00002736     2.45929143    -2.20390290
       6      -0.00000000    -0.00000000     0.39783008    -0.00002975     0.00000040
       7       0.00000000    -0.00000000     0.00000007    -0.00000031     0.00000010
       8       0.00000000    -0.00000000     0.39784456    -0.00002906     0.00000045
       9      -0.00005912     1.22948083     0.00000912     1.22419152    -0.61478737

               Column   6     Column   7     Column   8     Column   9
       1      -0.00001719    -4.61896341    -2.66571724    -0.00001720
       2       0.00002254    -2.10506320    -1.78206611    -0.00002254
       3       0.35428059    -0.00000000     0.00000008    -0.35428091
       4       0.00002077    -2.10505542    -1.78220677    -0.00002076
       5      -0.00002376    -2.45926416    -2.20401381    -0.00002377
       6      -0.19883530     0.00002673     0.00000178    -0.19883148
       7       0.35396150    -0.00000001     0.00000009    -0.35396432
       8      -0.19892983     0.00002546     0.00000164    -0.19893638
       9       0.00003014    -1.22415052    -0.61477785     0.00003014
    ==== End of matrix output ====
  frequency: 0.1000

               Column   1     Column   2     Column   3     Column   4     Column   5
       1      -0.00000775     5.43550357     0.00000703     4.69566016    -2.71775700
       2       4.31307158    -0.00000017    -0.00000000    -2.15665576     1.81659568
       3       0.00000000     0.00000000     0.00000007    -0.00000031     0.00000002
       4       4.31310638     0.00000012     0.00000001    -2.15663215     1.81672865
       5      -0.00001957     4.46997808     0.00002816     2.52465037    -2.23481668
       6      -0.00000000    -0.00000000     0.37882856    -0.00003080     0.00000041
       7       0.00000000    -0.00000000     0.00000007    -0.00000031     0.00000011
       8       0.00000000    -0.00000000     0.37882921    -0.00003004     0.00000046
       9      -0.00006077     1.26123545     0.00000942     1.25617725    -0.63066639

               Column   6     Column   7     Column   8     Column   9
       1      -0.00001738    -4.69567172    -2.71776434    -0.00001738
       2       0.00002304    -2.15664681    -1.81668610    -0.00002304
       3       0.34312753    -0.00000000     0.00000008    -0.34312779
       4       0.00002117    -2.15662213    -1.81681831    -0.00002116
       5      -0.00002419    -2.52462248    -2.23493015    -0.00002419
       6      -0.18932739     0.00002770     0.00000182    -0.18932345
       7       0.34277359    -0.00000001     0.00000009    -0.34277637
       8      -0.18944102     0.00002633     0.00000167    -0.18944913
       9       0.00003153    -1.25613486    -0.63065651     0.00003153
    ==== End of matrix output ====


  Normal coordinates
  ------------------


               Column   1     Column   2     Column   3
       1      -0.00160049    -0.00000000    -0.00000000
       2      -0.00000000     0.00113664    -0.00159575
       4       0.01270049     0.01343702     0.00957114
       5      -0.00951477    -0.00901967     0.01266282
       7       0.01270049    -0.01343702    -0.00957114
       8       0.00951477    -0.00901967     0.01266282
    ==== End of matrix output ====


  Polarizability tensor normal coord. gradient
  --------------------------------------------

  frequency: 0.0000

               Column   1     Column   2     Column   3
       1      -0.00000020     0.17296892     0.01242020
       2      -0.09054016     0.00000066    -0.00000116
       4      -0.09054352     0.00000064    -0.00000116
       5      -0.00000065     0.10689608    -0.01633848
       6      -0.00000002    -0.00000073    -0.00000048
       7      -0.00000000    -0.00000001    -0.00000000
       8      -0.00000003    -0.00000071    -0.00000047
       9       0.00000067     0.04355034     0.00563423
    ==== End of matrix output ====
  frequency: 0.0200

               Column   1     Column   2     Column   3
       1      -0.00000020     0.17329225     0.01241912
       2      -0.09075629     0.00000066    -0.00000116
       4      -0.09075961     0.00000064    -0.00000116
       5      -0.00000065     0.10713413    -0.01630644
       6      -0.00000002    -0.00000074    -0.00000048
       7      -0.00000000    -0.00000001    -0.00000000
       8      -0.00000003    -0.00000071    -0.00000047
       9       0.00000067     0.04365643     0.00565038
    ==== End of matrix output ====
  frequency: 0.0400

               Column   1     Column   2     Column   3
       1      -0.00000020     0.17426888     0.01241567
       2      -0.09141059     0.00000066    -0.00000117
       4      -0.09141379     0.00000064    -0.00000117
       5      -0.00000066     0.10785573    -0.01620787
       6      -0.00000002    -0.00000075    -0.00000049
       7      -0.00000000    -0.00000001    -0.00000000
       8      -0.00000003    -0.00000072    -0.00000047
       9       0.00000068     0.04398115     0.00569927
    ==== End of matrix output ====
  frequency: 0.0600

               Column   1     Column   2     Column   3
       1      -0.00000020     0.17591907     0.01240927
       2      -0.09252119     0.00000067    -0.00000119
       4      -0.09252415     0.00000065    -0.00000118
       5      -0.00000067     0.10908390    -0.01603518
       6      -0.00000002    -0.00000076    -0.00000050
       7      -0.00000000    -0.00000001    -0.00000000
       8      -0.00000003    -0.00000073    -0.00000048
       9       0.00000069     0.04454499     0.00578227
    ==== End of matrix output ====
  frequency: 0.0800

               Column   1     Column   2     Column   3
       1      -0.00000020     0.17827774     0.01239889
       2      -0.09411976     0.00000068    -0.00000120
       4      -0.09412233     0.00000066    -0.00000120
       5      -0.00000068     0.11085921    -0.01577475
       6      -0.00000003    -0.00000078    -0.00000051
       7      -0.00000000    -0.00000001    -0.00000000
       8      -0.00000003    -0.00000075    -0.00000050
       9       0.00000071     0.04538619     0.00590172
    ==== End of matrix output ====
  frequency: 0.1000

               Column   1     Column   2     Column   3
       1      -0.00000021     0.18139642     0.01238303
       2      -0.09625393     0.00000069    -0.00000123
       3      -0.00000000    -0.00000001    -0.00000000
       4      -0.09625590     0.00000067    -0.00000123
       5      -0.00000069     0.11324363    -0.01540526
       6      -0.00000003    -0.00000081    -0.00000053
       7      -0.00000000    -0.00000001    -0.00000000
       8      -0.00000004    -0.00000078    -0.00000051
       9       0.00000073     0.04656830     0.00606117
    ==== End of matrix output ====

     Raman related properties for freq.  0.000000 au  = Infinity nm
     ---------------------------------------------------------------

 Mode    Freq.     Alpha**2   Beta(a)**2   Pol.Int.   Depol.Int.  Dep. Ratio 

    1   4222.25    0.000000    3.515479   14.061916   10.546437    0.750000
    2   4121.02    1.661282    1.795905   81.941315    5.387716    0.065751
    3   1745.87    0.000047    0.096909    0.389742    0.290728    0.745950

 Mode    Freq.   ConverFac(*E13)  BoltzFac

    1   4222.25   -0.000000    1.00000000
    2   4121.02   -0.000000    1.00000000
    3   1745.87   -0.000000    0.99978069

     Raman related properties for freq.  0.020000 au  =  2278.17 nm
     ---------------------------------------------------------------

 Mode    Freq.     Alpha**2   Beta(a)**2   Pol.Int.   Depol.Int.  Dep. Ratio 

    1   4222.25    0.000000    3.532281   14.129124   10.596843    0.750000
    2   4121.02    1.668146    1.801930   82.274301    5.405789    0.065704
    3   1745.87    0.000049    0.096707    0.389048    0.290120    0.745717

 Mode    Freq.   ConverFac(*E13)  BoltzFac

    1   4222.25    0.000000    1.00000000
    2   4121.02    0.000000    1.00000000
    3   1745.87    0.000186    0.99978069

     Raman related properties for freq.  0.040000 au  =  1139.08 nm
     ---------------------------------------------------------------

 Mode    Freq.     Alpha**2   Beta(a)**2   Pol.Int.   Depol.Int.  Dep. Ratio 

    1   4222.25    0.000000    3.583390   14.333562   10.750171    0.750000
    2   4121.02    1.689037    1.820069   83.286927    5.460208    0.065559
    3   1745.87    0.000058    0.096082    0.386929    0.288247    0.744962

 Mode    Freq.   ConverFac(*E13)  BoltzFac

    1   4222.25    0.000787    1.00000000
    2   4121.02    0.000861    1.00000000
    3   1745.87    0.006998    0.99978069

     Raman related properties for freq.  0.060000 au  =   759.39 nm
     ---------------------------------------------------------------

 Mode    Freq.     Alpha**2   Beta(a)**2   Pol.Int.   Depol.Int.  Dep. Ratio 

    1   4222.25    0.000000    3.670982   14.683927   11.012945    0.750000
    2   4121.02    1.724882    1.850502   85.021690    5.551505    0.065295
    3   1745.87    0.000074    0.094986    0.383269    0.284959    0.743497

 Mode    Freq.   ConverFac(*E13)  BoltzFac

    1   4222.25    0.008933    1.00000000
    2   4121.02    0.009467    1.00000000
    3   1745.87    0.044970    0.99978069

     Raman related properties for freq.  0.080000 au  =   569.54 nm
     ---------------------------------------------------------------

 Mode    Freq.     Alpha**2   Beta(a)**2   Pol.Int.   Depol.Int.  Dep. Ratio 

    1   4222.25    0.000000    3.798913   15.195653   11.396740    0.750000
    2   4121.02    1.777356    1.893441   87.554788    5.680322    0.064877
    3   1745.87    0.000101    0.093330    0.377882    0.279991    0.740950

 Mode    Freq.   ConverFac(*E13)  BoltzFac

    1   4222.25    0.039454    1.00000000
    2   4121.02    0.041350    1.00000000
    3   1745.87    0.159052    0.99978069

     Raman related properties for freq.  0.100000 au  =   455.63 nm
     ---------------------------------------------------------------

 Mode    Freq.     Alpha**2   Beta(a)**2   Pol.Int.   Depol.Int.  Dep. Ratio 

    1   4222.25    0.000000    3.973120   15.892481   11.919361    0.750000
    2   4121.02    1.849104    1.948966   91.005557    5.846898    0.064248
    3   1745.87    0.000147    0.090981    0.370524    0.272943    0.736639

 Mode    Freq.   ConverFac(*E13)  BoltzFac

    1   4222.25    0.115804    1.00000000
    2   4121.02    0.120693    1.00000000
    3   1745.87    0.414607    0.99978069

   **** For definitions, see the DALTON manual and references therein. ****



                              Total Molecular Energy
                              ----------------------

             electronic     vibrational           total    energy 

             -76.061272        0.022985      -76.038287    Hartrees
           -16693519.40         5044.57    -16688474.83    cm-1
             -199698.84           60.35      -199638.49    kJ/mol
              -47729.17           14.42       -47714.74    kcal/mol


                          Molecular Partition Functions
                          -----------------------------

 Qtran is evaluated per mol at 1 atm. pressure.
 Qrot does not include symmetry numbers.
 Qvib does not include zero point energies
 (i.e., energy scale has vibrational ground state as zero).


 Temp.(K)  Translational     Rotational    Vibrational      Total

    50.00     3.4600D+04           6.06         1.0000   2.098417D+05
   100.00     1.9573D+05          16.41         1.0000   3.212671D+06
   200.00     1.1072D+06          45.38         1.0000   5.024455D+07
   273.15     2.4136D+06          71.98         1.0001   1.737507D+08
   298.15     3.0043D+06          81.97         1.0002   2.463164D+08
   300.00     3.0511D+06          82.73         1.0002   2.524657D+08
   400.00     6.2633D+06         126.87         1.0019   7.961353D+08
   500.00     1.0942D+07         176.90         1.0066   1.948364D+09
   600.00     1.7260D+07         232.17         1.0155   4.069459D+09
   700.00     2.5375D+07         292.25         1.0288   7.629333D+09
   800.00     3.5431D+07         356.76         1.0464   1.322672D+10
   900.00     4.7562D+07         425.42         1.0681   2.161159D+10
  1000.00     6.1895D+07         498.00         1.0937   3.371144D+10
  1500.00     1.7056D+08         913.45         1.2769   1.989452D+11
  2000.00     3.5013D+08        1405.24         1.5485   7.619011D+11


                                +------------------+
                                ! Polarizabilities !
                                +------------------+


 Vibrational polarizabilities calculated acc. to Rinaldi et al.,
 Chem.Phys.Lett. 128 (1986) 177-181.


                        Vibrational Polarizabilities (au)
                        ---------------------------------

                         Ex          Ey          Ez

            Ex       0.140017    0.000000    0.000000
            Ey       0.000000    0.881885   -0.000000
            Ez       0.000000   -0.000000    0.000000



                   Vibrational Polarizabilities (angstroms**3)
                   -------------------------------------------

                         Ex          Ey          Ez

            Ex       0.020748    0.000000    0.000000
            Ey       0.000000    0.130682   -0.000000
            Ez       0.000000   -0.000000    0.000000



                   Vibrational Polarizabilities (angstroms**3)
                   -------------------------------------------

               (Along principal axes of moments of inertia)

                         EA          EB          EC

            EA       0.020748    0.000000    0.000000
            EB       0.000000    0.130682   -0.000000
            EC       0.000000   -0.000000    0.000000



 Vibrational mean polarization :    0.1275 cm**3 mol**-1
  Time used in VIBCTL     is       0.17 seconds


 CPU time statistics for ABACUS
 ------------------------------

 TWOTEX     00:00:03      18 %
 RHSIDE     00:00:01       6 %
 RESPON     00:00:02      14 %
 LNRABA     00:00:10      58 %
 REST       00:00:01       6 %

 TOTAL      00:00:17     100 %


  Total CPU  time used in ABACUS:  16.82 seconds
  Total wall time used in ABACUS:  16.99 seconds


                   .-------------------------------------------.
                   | End of Static Property Section (ABACUS) - |
                   `-------------------------------------------'

  Total CPU  time used in DALTON:  4 minutes 53 seconds
  Total wall time used in DALTON:  4 minutes 56 seconds

 
     Date and time (Linux)  : Mon Dec 15 18:16:19 2025
     Host name              : xm051                                   
