

     ************************************************************************
     *************** Dalton - An Electronic Structure Program ***************
     ************************************************************************

    This is output from DALTON release Dalton2020.0 (2020)
         ( Web site: http://daltonprogram.org )

   ----------------------------------------------------------------------------

    NOTE:
     
    Dalton is an experimental code for the evaluation of molecular
    properties using (MC)SCF, DFT, CI, and CC wave functions.
    The authors accept no responsibility for the performance of
    the code or for the correctness of the results.
     
    The code (in whole or part) is provided under a licence and
    is not to be reproduced for further distribution without
    the written permission of the authors or their representatives.
     
    See the home page "http://daltonprogram.org" for further information.
     
    If results obtained with this code are published,
    the appropriate citations would be both of:
     
       K. Aidas, C. Angeli, K. L. Bak, V. Bakken, R. Bast,
       L. Boman, O. Christiansen, R. Cimiraglia, S. Coriani,
       P. Dahle, E. K. Dalskov, U. Ekstroem,
       T. Enevoldsen, J. J. Eriksen, P. Ettenhuber, B. Fernandez,
       L. Ferrighi, H. Fliegl, L. Frediani, K. Hald, A. Halkier,
       C. Haettig, H. Heiberg, T. Helgaker, A. C. Hennum,
       H. Hettema, E. Hjertenaes, S. Hoest, I.-M. Hoeyvik,
       M. F. Iozzi, B. Jansik, H. J. Aa. Jensen, D. Jonsson,
       P. Joergensen, J. Kauczor, S. Kirpekar,
       T. Kjaergaard, W. Klopper, S. Knecht, R. Kobayashi, H. Koch,
       J. Kongsted, A. Krapp, K. Kristensen, A. Ligabue,
       O. B. Lutnaes, J. I. Melo, K. V. Mikkelsen, R. H. Myhre,
       C. Neiss, C. B. Nielsen, P. Norman, J. Olsen,
       J. M. H. Olsen, A. Osted, M. J. Packer, F. Pawlowski,
       T. B. Pedersen, P. F. Provasi, S. Reine, Z. Rinkevicius,
       T. A. Ruden, K. Ruud, V. Rybkin, P. Salek, C. C. M. Samson,
       A. Sanchez de Meras, T. Saue, S. P. A. Sauer,
       B. Schimmelpfennig, K. Sneskov, A. H. Steindal,
       K. O. Sylvester-Hvid, P. R. Taylor, A. M. Teale,
       E. I. Tellgren, D. P. Tew, A. J. Thorvaldsen, L. Thoegersen,
       O. Vahtras, M. A. Watson, D. J. D. Wilson, M. Ziolkowski
       and H. Agren,
       "The Dalton quantum chemistry program system",
       WIREs Comput. Mol. Sci. 2014, 4:269–284 (doi: 10.1002/wcms.1172)
     
    and
     
       Dalton, a molecular electronic structure program,
       Release Dalton2020.0 (2020), see http://daltonprogram.org
   ----------------------------------------------------------------------------

    Authors in alphabetical order (Major contribution(s) in parenthesis):

  Kestutis Aidas,           Vilnius University,           Lithuania   (QM/MM)
  Celestino Angeli,         University of Ferrara,        Italy       (NEVPT2)
  Keld L. Bak,              UNI-C,                        Denmark     (AOSOPPA, non-adiabatic coupling, magnetic properties)
  Vebjoern Bakken,          University of Oslo,           Norway      (DALTON; geometry optimizer, symmetry detection)
  Radovan Bast,             UiT The Arctic U. of Norway,  Norway      (DALTON installation and execution frameworks)
  Pablo Baudin,             University of Valencia,       Spain       (Cholesky excitation energies)
  Linus Boman,              NTNU,                         Norway      (Cholesky decomposition and subsystems)
  Bruno N. Cabral Tenorio,  Technical Univ. of Denmark,   Denmark     (Lanczos-based CC methods)
  Ove Christiansen,         Aarhus University,            Denmark     (CC module)
  Renzo Cimiraglia,         University of Ferrara,        Italy       (NEVPT2)
  Sonia Coriani,            Technical Univ. of Denmark,   Denmark     (CC and RESPONS modules)
  Janusz Cukras,            University of Warsaw,         Poland      (MChD in RESPONS)
  Paal Dahle,               University of Oslo,           Norway      (Parallelization)
  Erik K. Dalskov,          UNI-C,                        Denmark     (SOPPA)
  Thomas Enevoldsen,        Univ. of Southern Denmark,    Denmark     (SOPPA)
  Janus J. Eriksen,         Aarhus University,            Denmark     (Polarizable embedding, TDA)
  Rasmus Faber,             Technical Univ. of Denmark,   Denmark     (Vib.avg. NMR w. SOPPA, parallel AO-SOPPA, CVS-CC and EOMCC)
  Tobias Fahleson,          KTH Stockholm,                Sweden      (Damped cubic response)
  Berta Fernandez,          U. of Santiago de Compostela, Spain       (Doublet spin, ESR in RESPONS)
  Lara Ferrighi,            Aarhus University,            Denmark     (PCM Cubic response)
  Heike Fliegl,             University of Oslo,           Norway      (CCSD(R12))
  Luca Frediani,            UiT The Arctic U. of Norway,  Norway      (PCM)
  Emmanuel Fromager,        Univ. Strasbourg,             France      (MC-srDFT)
  Bin Gao,                  UiT The Arctic U. of Norway,  Norway      (Gen1Int library)
  Andre S. P. Gomes,        CNRS/Universite de Lille,     France      (Frozen density embedding)
  Christof Haettig,         Ruhr-University Bochum,       Germany     (CC module)
  Kasper Hald,              Aarhus University,            Denmark     (CC module)
  Asger Halkier,            Aarhus University,            Denmark     (CC module)
  Frederik Beyer Hansen,    University of Copenhagen,     Denmark     (Parallel AO-SOPPA)
  Erik D. Hedegaard,        Univ. of Southern Denmark,    Denmark     (Polarizable embedding, QM/MM, and MC-srDFT)
  Hanne Heiberg,            University of Oslo,           Norway      (Geometry analysis, selected one-electron integrals)
  Trygve Helgaker,          University of Oslo,           Norway      (DALTON; ABACUS, ERI, DFT modules, London, and much more)
  Alf Christian Hennum,     University of Oslo,           Norway      (Parity violation)
  Hinne Hettema,            University of Auckland,       New Zealand (Quadratic response in RESPONS; SIRIUS supersymmetry)
  Eirik Hjertenaes,         NTNU,                         Norway      (Cholesky decomposition)
  Pi A. B. Haase,           University of Copenhagen,     Denmark     (Triplet AO-SOPPA)
  Maria Francesca Iozzi,    University of Oslo,           Norway      (RPA)
  Christoph Jacob           TU Braunschweig               Germany     (Frozen density embedding)
  Brano Jansik              Technical Univ. of Ostrava    Czech Rep.  (DFT cubic response)
  Hans Joergen Aa. Jensen,  Univ. of Southern Denmark,    Denmark     (DALTON; SIRIUS, RESPONS, ABACUS, MC-srDFT, and much more)
  Dan Jonsson,              UiT The Arctic U. of Norway,  Norway      (Cubic response in RESPONS module)
  Poul Joergensen,          Aarhus University,            Denmark     (RESPONS, ABACUS, and CC modules)
  Maciej Kaminski,          University of Warsaw,         Poland      (CPPh in RESPONS)
  Joanna Kauczor,           Linkoeping University,        Sweden      (Complex polarization propagator (CPP) module)
  Sheela Kirpekar,          Univ. of Southern Denmark,    Denmark     (Mass-velocity & Darwin integrals)
  Erik Kjellgren,           Univ. of Southern Denmark,    Denmark     (MC-srDFT)
  Wim Klopper,              KIT Karlsruhe,                Germany     (R12 code in CC, SIRIUS, and ABACUS modules)
  Stefan Knecht,            ETH Zurich,                   Switzerland (Parallel CI and MCSCF, MC-srDFT)
  Rika Kobayashi,           Australian National Univ.,    Australia   (DIIS in CC, London in MCSCF)
  Henrik Koch,              NTNU,                         Norway      (CC module, Cholesky decomposition)
  Jacob Kongsted,           Univ. of Southern Denmark,    Denmark     (Polarizable embedding, polarizable density embedding, QM/MM)
  Andrea Ligabue,           University of Modena,         Italy       (CTOCD, AOSOPPA)
  Nanna H. List             Univ. of Southern Denmark,    Denmark     (Polarizable embedding)
  Ola B. Lutnaes,           University of Oslo,           Norway      (DFT Hessian)
  Juan I. Melo,             University of Buenos Aires,   Argentina   (LRESC, Relativistic Effects on NMR Shieldings)
  Kurt V. Mikkelsen,        University of Copenhagen,     Denmark     (MC-SCRF and QM/MM)
  Rolf H. Myhre,            NTNU,                         Norway      (Subsystems and CC3)
  Christian Neiss,          Univ. Erlangen-Nuernberg,     Germany     (CCSD(R12))
  Christian B. Nielsen,     University of Copenhagen,     Denmark     (QM/MM)
  Patrick Norman,           KTH Stockholm,                Sweden      (Cubic response and complex frequency response in RESPONS)
  Jeppe Olsen,              Aarhus University,            Denmark     (SIRIUS CI/density modules)
  Jogvan Magnus H. Olsen,   Aarhus University,            Denmark     (Polarizable embedding and polarizable density embedding)
  Anders Osted,             Copenhagen University,        Denmark     (QM/MM)
  Martin J. Packer,         University of Sheffield,      UK          (SOPPA)
  Filip Pawlowski,          Kazimierz Wielki University,  Poland      (CC3)
  Morten N. Pedersen,       Univ. of Southern Denmark,    Denmark     (Polarizable embedding)
  Thomas B. Pedersen,       University of Oslo,           Norway      (Cholesky decomposition)
  Patricio F. Provasi,      University of Northeastern,   Argentina   (Analysis of coupling constants in localized orbitals)
  Peter Reinholdt,          Univ. of Southern Denmark,    Denmark     (Polarizable embedding and polarizable density embedding)
  Zilvinas Rinkevicius,     KTH Stockholm,                Sweden      (open-shell DFT, ESR)
  Elias Rudberg,            KTH Stockholm,                Sweden      (DFT grid and basis info)
  Torgeir A. Ruden,         University of Oslo,           Norway      (Numerical derivatives in ABACUS)
  Kenneth Ruud,             UiT The Arctic U. of Norway,  Norway      (DALTON; ABACUS magnetic properties and much more)
  Pawel Salek,              KTH Stockholm,                Sweden      (DALTON; DFT code)
  Claire C. M. Samson       University of Karlsruhe       Germany     (Boys localization, r12 integrals in ERI)
  Alfredo Sanchez de Meras, University of Valencia,       Spain       (CC module, Cholesky decomposition)
  Trond Saue,               Paul Sabatier University,     France      (direct Fock matrix construction)
  Stephan P. A. Sauer,      University of Copenhagen,     Denmark     (SOPPA(CCSD), SOPPA prop., AOSOPPA, vibrational g-factors)
  Bernd Schimmelpfennig,    Forschungszentrum Karlsruhe,  Germany     (AMFI module)
  Anna K. Schnack-Petersen, University of Copenhagen,     Denmark     (RPA(D) and HRPA(D) properties in AOSOPPA)
  Kristian Sneskov,         Aarhus University,            Denmark     (Polarizable embedding, QM/MM)
  Arnfinn H. Steindal,      UiT The Arctic U. of Norway,  Norway      (parallel QM/MM, polarizable embedding)
  Casper Steinmann,         Aalborg University,           Denmark     (QFIT, polarizable embedding)
  K. O. Sylvester-Hvid,     University of Copenhagen,     Denmark     (MC-SCRF)
  Peter R. Taylor,          VLSCI/Univ. of Melbourne,     Australia   (Symmetry handling ABACUS, integral transformation)
  Andrew M. Teale,          University of Nottingham,     England     (DFT-AC, DFT-D)
  David P. Tew,             University of Bristol,        England     (CCSD(R12))
  Julien Toulouse,          Sorbonne Univ.,               France      (MC-srDFT)
  Olav Vahtras,             KTH Stockholm,                Sweden      (Triplet response, spin-orbit, ESR, TDDFT, open-shell DFT)
  Lucas Visscher,           Vrije Universiteit Amsterdam, Netherlands (Frozen density embedding)
  David J. Wilson,          La Trobe University,          Australia   (DFT Hessian and DFT magnetizabilities)
  Hans Agren,               KTH Stockholm,                Sweden      (SIRIUS module, RESPONS, MC-SCRF solvation)
 --------------------------------------------------------------------------------

     Date and time (Linux)  : Thu Sep  7 16:34:33 2023
     Host name              : sn-mem                                  

 * Work memory size             :    64000000 =  488.28 megabytes.

 * Directories for basis set searches:
   1) /gpfs/projects/rjh/adrian/august_no_symmetry/dalton/hf/H2O/dipole
   2) /gpfs/projects/rjh/adrian/dalton/build/basis


Compilation information
-----------------------

 Who compiled             | ahurtado
 Host                     | sn-mem
 System                   | Linux-3.10.0-1160.24.1.el7.x86_64
 CMake generator          | Unix Makefiles
 Processor                | x86_64
 64-bit integers          | OFF
 MPI                      | ON
 Fortran compiler         | /gpfs/software/intel/oneAPI/2021_4/mpi/2021.4.0/bi
                          | n/mpif90
 Fortran compiler version | GNU Fortran (GCC) 11.2.0
 C compiler               | /gpfs/software/intel/oneAPI/2021_4/mpi/2021.4.0/bi
                          | n/mpicc
 C compiler version       | gcc (GCC) 11.2.0
 C++ compiler             | /gpfs/software/intel/oneAPI/2021_4/mpi/2021.4.0/bi
                          | n/mpicxx
 C++ compiler version     | unknown
 BLAS                     | /gpfs/software/intel/oneAPI/2021_4/mkl/2021.4.0/li
                          | b/intel64/libmkl_gf_lp64.so;/gpfs/software/intel/o
                          | neAPI/2021_4/mkl/2021.4.0/lib/intel64/libmkl_seque
                          | ntial.so;/gpfs/software/intel/oneAPI/2021_4/mkl/20
                          | 21.4.0/lib/intel64/libmkl_core.so;/usr/lib64/libpt
                          | hread.so;/usr/lib64/libm.so
 LAPACK                   | /gpfs/software/intel/oneAPI/2021_4/mkl/2021.4.0/li
                          | b/intel64/libmkl_lapack95_lp64.a;/gpfs/software/in
                          | tel/oneAPI/2021_4/mkl/2021.4.0/lib/intel64/libmkl_
                          | gf_lp64.so
 Static linking           | OFF
 Last Git revision        | 66052b3af5ea7225e31178bf9a8b031913c72190
 Git branch               | (HEAD detached at Dalton2020.0)
 Configuration time       | 2023-01-11 13:33:37.731835

 * MPI parallel run using 5 processes.


   Content of the .dal input file
 ----------------------------------

**DALTON INPUT
.RUN RESPONSE
.DIRECT
**WAVE FUNCTIONS
.HF
**PROPERTIES
**RESPONSE
*QUADRA
.DIPLEN
.FREQUENCIES
5
0.0 0.0198666875 0.039733375 0.0596000625 0.07946675
**END OF DALTON INPUT


   Content of the .mol file
 ----------------------------

BASIS
aug-cc-pV5Z
blah
blah
Atomtype=2 Angstrom Charge=0 Nosymmmetry
Charge=8 Atoms=1
O_a 0.000000000000 0.000000000000 0.117299997610
Charge=1 Atoms=2
H_a 0.000000000000 0.757199998838 -0.469200001024
H_b 0.000000000000 -0.757199998838 -0.469200001024


       *******************************************************************
       *********** Output from DALTON general input processing ***********
       *******************************************************************

 --------------------------------------------------------------------------------
   Overall default print level:    0
   Print level for DALTON.STAT:    1

    Parallel calculation using MPI
    AO-direct calculation (in sections where implemented)
    HERMIT 1- and 2-electron integral sections will be executed
    "Old" integral transformation used (limited to max 255 basis functions)
    Wave function sections will be executed (SIRIUS module)
    Dynamic molecular response properties section will be executed (RESPONSE module)
 --------------------------------------------------------------------------------


   ****************************************************************************
   *************** Output of molecule and basis set information ***************
   ****************************************************************************


    The two title cards from your ".mol" input:
    ------------------------------------------------------------------------
 1: blah                                                                    
 2: blah                                                                    
    ------------------------------------------------------------------------

  Coordinates are entered in Angstrom and converted to atomic units.
          - Conversion factor : 1 bohr = 0.52917721 A

  Atomic type no.    1
  --------------------
  Nuclear charge:   8.00000
  Number of symmetry independent centers:    1
  Number of basis sets to read;    2
  Basis set file used for this atomic type with Z =   8 :
     "/gpfs/projects/rjh/adrian/dalton/build/basis/aug-cc-pV5Z"

  Atomic type no.    2
  --------------------
  Nuclear charge:   1.00000
  Number of symmetry independent centers:    2
  Number of basis sets to read;    2
  Basis set file used for this atomic type with Z =   1 :
     "/gpfs/projects/rjh/adrian/dalton/build/basis/aug-cc-pV5Z"


                         SYMGRP: Point group information
                         -------------------------------

@    Point group: C1 


                                 Isotopic Masses
                                 ---------------

                           O_a        15.994915
                           H_a         1.007825
                           H_b         1.007825

                       Total mass:    18.010565 amu
                       Natural abundance:  99.730 %

 Center-of-mass coordinates (a.u.):    0.000000    0.000000    0.097627
 Center-of-mass coordinates (Angs):    0.000000    0.000000    0.051662


  Atoms and basis sets
  --------------------

  Number of atom types :    2
  Total number of atoms:    3

  Basis set used is "aug-cc-pV5Z" from the basis set library.

  label    atoms   charge   prim   cont     basis
  ----------------------------------------------------------------------
  O_          1    8.0000   144   127      [15s9p5d4f3g2h|7s6p5d4f3g2h]                       
  H_          2    1.0000    83    80      [9s5p4d3f2g|6s5p4d3f2g]                            
  ----------------------------------------------------------------------
  total:      3   10.0000   310   287
  ----------------------------------------------------------------------
  Spherical harmonic basis used.

  Threshold for neglecting AO integrals:  1.00D-12


  Cartesian Coordinates (a.u.)
  ----------------------------

  Total number of coordinates:    9
  O_a     :     1  x   0.0000000000    2  y   0.0000000000    3  z   0.2216648699
  H_a     :     4  x   0.0000000000    5  y   1.4309006196    6  z  -0.8866594998
  H_b     :     7  x   0.0000000000    8  y  -1.4309006196    9  z  -0.8866594998


   Interatomic separations (in Angstrom):
   --------------------------------------

            O_a         H_a         H_b   
            ------      ------      ------
 O_a   :    0.000000
 H_a   :    0.957776    0.000000
 H_b   :    0.957776    1.514400    0.000000


  Max    interatomic separation is    1.5144 Angstrom (    2.8618 Bohr)
  between atoms    3 and    2, "H_b   " and "H_a   ".

  Min HX interatomic separation is    0.9578 Angstrom (    1.8099 Bohr)


  Bond distances (Angstrom):
  --------------------------

                  atom 1     atom 2       distance
                  ------     ------       --------
  bond distance:  H_a        O_a          0.957776
  bond distance:  H_b        O_a          0.957776


  Bond angles (degrees):
  ----------------------

                  atom 1     atom 2     atom 3         angle
                  ------     ------     ------         -----
  bond angle:     H_a        O_a        H_b          104.480




 Principal moments of inertia (u*A**2) and principal axes
 --------------------------------------------------------

   IA       0.615752          0.000000    1.000000    0.000000
   IB       1.155677          0.000000    0.000000    1.000000
   IC       1.771429          1.000000    0.000000    0.000000


 Rotational constants
 --------------------

@    The molecule is planar.

               A                   B                   C

         820751.0438         437301.3971         285294.6081 MHz
           27.377308           14.586804            9.516404 cm-1


@  Nuclear repulsion energy :    9.189533777587 Hartree


                     .---------------------------------------.
                     | Starting in Integral Section (HERMIT) |
                     `---------------------------------------'



 ***************************************************************************************
 ****************** Output from **INTEGRALS input processing (HERMIT) ******************
 ***************************************************************************************


 - Using defaults, no **INTEGRALS input found

 Default print level:        1

 Calculation of one-electron Hamiltonian integrals.

 Center of mass  (bohr):      0.000000000000      0.000000000000      0.097626894688
 Operator center (bohr):      0.000000000000      0.000000000000      0.000000000000
 Gauge origin    (bohr):      0.000000000000      0.000000000000      0.000000000000
 Dipole origin   (bohr):      0.000000000000      0.000000000000      0.000000000000


     ************************************************************************
     ************************** Output from HERINT **************************
     ************************************************************************



                      Nuclear contribution to dipole moments
                      --------------------------------------

                 au               Debye          C m (/(10**-30)

      x      0.00000000         0.00000000         0.00000000
      y      0.00000000         0.00000000         0.00000000
      z     -0.00000004        -0.00000010        -0.00000034


  Time used in GABGEN     is       1.41 seconds
  Total CPU  time used in HERMIT:   1.88 seconds
  Total wall time used in HERMIT:   1.88 seconds


                        .----------------------------------.
                        | End of Integral Section (HERMIT) |
                        `----------------------------------'



                   .--------------------------------------------.
                   | Starting in Wave Function Section (SIRIUS) |
                   `--------------------------------------------'


 *** Output from Huckel module :

     Using EWMO model:          T
     Using EHT  model:          F
     Number of Huckel orbitals each symmetry:    7

 EWMO - Energy Weighted Maximum Overlap - is a Huckel type method,
        which normally is better than Extended Huckel Theory.
 Reference: Linderberg and Ohrn, Propagators in Quantum Chemistry (Wiley, 1973)

 Huckel EWMO eigenvalues for symmetry :  1
          -20.684959      -1.611341      -0.778168      -0.688462      -0.616200
           -0.232449      -0.168322

 **********************************************************************
 *SIRIUS* a direct, restricted step, second order MCSCF program       *
 **********************************************************************

 
     Date and time (Linux)  : Thu Sep  7 16:34:37 2023
     Host name              : sn-mem                                  

 Title lines from ".mol" input file:
     blah                                                                    
     blah                                                                    

 Print level on unit LUPRI =   2 is   0
 Print level on unit LUW4  =   2 is   5

@    Restricted, closed shell Hartree-Fock calculation.

@    Time-dependent Hartree-Fock calculation (random phase approximation).
 Fock matrices are calculated directly and in parallel without use of integrals on disk.

 Initial molecular orbitals are obtained according to
 ".MOSTART EWMO  " input option

     Wave function specification
     ============================
@    Wave function type        --- HF ---
@    Number of closed shell electrons          10
@    Number of electrons in active shells       0
@    Total charge of the molecule               0

@    Spin multiplicity and 2 M_S                1         0
@    Total number of symmetries                 1 (point group: C1 )
@    Reference state symmetry                   1 (irrep name : A  )

     Orbital specifications
     ======================
@    Abelian symmetry species          All |    1
@                                          |  A  
                                       --- |  ---
@    Occupied SCF orbitals               5 |    5
@    Secondary orbitals                282 |  282
@    Total number of orbitals          287 |  287
@    Number of basis functions         287 |  287

     Optimization information
     ========================
@    Number of configurations                 1
@    Number of orbital rotations           1410
     ------------------------------------------
@    Total number of variables             1411

     Maximum number of Fock   iterations      0
     Maximum number of DIIS   iterations     60
     Maximum number of QC-SCF iterations     60
     Threshold for SCF convergence     1.00D-05

    INFORMATION: Switched to "new" integral transformation (from 1988 ;-) )
    because more than 255 basis functions.


 ***********************************************
 ***** DIIS acceleration of SCF iterations *****
 ***********************************************

 C1-DIIS algorithm; max error vectors =    8

 Iter      Total energy        Error norm    Delta(E)  DIIS dim.
 -----------------------------------------------------------------------------
   1  Screening settings (-IFTHRS, JTDIIS, DIFDEN, times)   -8    1    T  1.96D+01  1.96D+01
@  1    -75.8787099742        2.03238D+00   -7.59D+01    1
      Virial theorem: -V/T =      1.996755
@    MULPOP   O_a     0.72; H_a    -0.36; H_b    -0.36; 
   1  Level shift: doubly occupied orbital energies shifted by -2.00D-01
 -----------------------------------------------------------------------------
   2  Screening settings (-IFTHRS, JTDIIS, DIFDEN, times)   -8    2    T  1.99D+01  1.99D+01
@  2    -76.0561014540        4.20426D-01   -1.77D-01    2
      Virial theorem: -V/T =      2.003272
@    MULPOP   O_a    -0.74; H_a     0.37; H_b     0.37; 
   2  Level shift: doubly occupied orbital energies shifted by -5.00D-02
 -----------------------------------------------------------------------------
   3  Screening settings (-IFTHRS, JTDIIS, DIFDEN, times)  -12    3    F  2.00D+01  2.00D+01
@  3    -76.0659325479        1.11553D-01   -9.83D-03    3
      Virial theorem: -V/T =      2.000010
@    MULPOP   O_a    -0.82; H_a     0.41; H_b     0.41; 
   3  Level shift: doubly occupied orbital energies shifted by -2.50D-02
 -----------------------------------------------------------------------------
   4  Screening settings (-IFTHRS, JTDIIS, DIFDEN, times)  -12    4    T  2.04D+01  2.04D+01
@  4    -76.0671035960        5.16071D-02   -1.17D-03    4
      Virial theorem: -V/T =      2.001732
@    MULPOP   O_a    -0.81; H_a     0.41; H_b     0.41; 
   4  Level shift: doubly occupied orbital energies shifted by -1.25D-02
 -----------------------------------------------------------------------------
   5  Screening settings (-IFTHRS, JTDIIS, DIFDEN, times)  -12    5    T  2.00D+01  2.00D+01
@  5    -76.0672517583        1.19102D-02   -1.48D-04    5
      Virial theorem: -V/T =      2.000789
@    MULPOP   O_a    -0.82; H_a     0.41; H_b     0.41; 
 -----------------------------------------------------------------------------
   6  Screening settings (-IFTHRS, JTDIIS, DIFDEN, times)  -12    6    T  1.95D+01  1.96D+01
@  6    -76.0672752013        2.81255D-03   -2.34D-05    6
      Virial theorem: -V/T =      2.000907
@    MULPOP   O_a    -0.82; H_a     0.41; H_b     0.41; 
 -----------------------------------------------------------------------------
   7  Screening settings (-IFTHRS, JTDIIS, DIFDEN, times)  -12    7    T  2.02D+01  2.04D+01
@  7    -76.0672767336        4.87353D-04   -1.53D-06    7
      Virial theorem: -V/T =      2.000924
@    MULPOP   O_a    -0.82; H_a     0.41; H_b     0.41; 
 -----------------------------------------------------------------------------
   8  Screening settings (-IFTHRS, JTDIIS, DIFDEN, times)  -12    8    T  2.03D+01  2.04D+01
@  8    -76.0672767716        6.67719D-05   -3.80D-08    8
      Virial theorem: -V/T =      2.000928
@    MULPOP   O_a    -0.82; H_a     0.41; H_b     0.41; 
 -----------------------------------------------------------------------------
   9  Screening settings (-IFTHRS, JTDIIS, DIFDEN, times)  -12    9    T  1.93D+01  1.94D+01
@  9    -76.0672767723        1.12831D-05   -6.55D-10    8
      Virial theorem: -V/T =      2.000928
@    MULPOP   O_a    -0.82; H_a     0.41; H_b     0.41; 
 -----------------------------------------------------------------------------
  10  Screening settings (-IFTHRS, JTDIIS, DIFDEN, times)  -12   10    T  1.88D+01  1.89D+01
@ 10    -76.0672767723        2.42443D-06   -1.59D-11    8

@ *** DIIS converged in  10 iterations !
@     Converged SCF energy, gradient:    -76.067276772310    2.42D-06
    - total time used in SIRFCK :              0.00 seconds


 *** SCF orbital energy analysis ***

 Only the 20 lowest virtual orbital energies printed in each symmetry.

 Number of electrons :   10
 Orbital occupations :    5

 Sym       Hartree-Fock orbital energies

1 A     -20.56413233    -1.35239389    -0.71742763    -0.58494706    -0.51048551
          0.02359525     0.03690637     0.08962169     0.10644838     0.12938405
          0.13008619     0.16039129     0.16969693     0.17915207     0.19507798
          0.21006292     0.24992328     0.29760818     0.32099755     0.39025161
          0.41851600     0.45154721     0.46541443     0.46672763     0.46961557

    E(LUMO) :     0.02359525 au (symmetry 1)
  - E(HOMO) :    -0.51048551 au (symmetry 1)
  ------------------------------------------
    gap     :     0.53408076 au

 --- Writing SIRIFC interface file

 CPU and wall time for SCF :     199.709     200.284


                       .-----------------------------------.
                       | --- Final results from SIRIUS --- |
                       `-----------------------------------'


@    Spin multiplicity:           1
@    Spatial symmetry:            1 ( irrep  A   in C1  )
@    Total charge of molecule:    0

@    Final HF energy:             -76.067276772310                 
@    Nuclear repulsion:             9.189533777587
@    Electronic energy:           -85.256810549897

@    Final gradient norm:           0.000002424430

 
     Date and time (Linux)  : Thu Sep  7 16:37:57 2023
     Host name              : sn-mem                                  

File label for MO orbitals:   7Sep23   FOCKDIIS

 (Only coefficients > 0.0100 are printed.)

 Molecular orbitals for symmetry species 1  (A  )
 ------------------------------------------------

    Orbital         1        2        3        4        5        6        7
   1 O_a :1s    -1.0006   0.0046  -0.0000  -0.0031  -0.0000  -0.0013   0.0000
   2 O_a :1s    -0.0030  -0.8796  -0.0000  -0.3069  -0.0000  -0.0928   0.0000
   4 O_a :1s     0.0026   0.0169  -0.0000  -0.0036  -0.0000   0.1080  -0.0000
   5 O_a :1s    -0.0017   0.0263   0.0000  -0.0352  -0.0000  -0.6108  -0.0000
   6 O_a :1s    -0.0039  -0.0335   0.0000  -0.0864  -0.0000  -3.6975  -0.0000
   7 O_a :1s    -0.0008  -0.0310  -0.0000   0.0210  -0.0000  -4.9743  -0.0000
   8 O_a :2px   -0.0000  -0.0000   0.0000  -0.0000   0.9225  -0.0000   0.0000
   9 O_a :2py    0.0000  -0.0000  -0.7374   0.0000   0.0000   0.0000   0.0648
  10 O_a :2pz    0.0107   0.1144   0.0000  -0.8126  -0.0000   0.0758  -0.0000
  12 O_a :2py   -0.0000  -0.0000   0.0058   0.0000   0.0000   0.0000  -0.0121
  13 O_a :2pz   -0.0033  -0.0011   0.0000   0.0044  -0.0000  -0.0123   0.0000
  15 O_a :2py    0.0000   0.0000  -0.0039  -0.0000   0.0000   0.0000   0.0770
  16 O_a :2pz   -0.0031   0.0057  -0.0000   0.0044   0.0000   0.0759   0.0000
  18 O_a :2py    0.0000  -0.0000  -0.0039   0.0000  -0.0000   0.0000   1.0125
  19 O_a :2pz   -0.0012   0.0130  -0.0000   0.0013   0.0000   0.7893  -0.0000
  20 O_a :2px   -0.0000  -0.0000   0.0000  -0.0000   0.0372  -0.0000   0.0000
  21 O_a :2py    0.0000  -0.0000   0.0172   0.0000  -0.0000   0.0000   2.3116
  22 O_a :2pz   -0.0007   0.0089  -0.0000  -0.0135   0.0000   1.2717   0.0000
  24 O_a :2py   -0.0000  -0.0000  -0.0058   0.0000  -0.0000   0.0000   1.9641
  25 O_a :2pz    0.0000   0.0019   0.0000  -0.0071  -0.0000   0.1808   0.0000
  37 O_a :3d1-  -0.0000   0.0000   0.0298   0.0000  -0.0000   0.0000  -0.0645
  38 O_a :3d0   -0.0003  -0.0029  -0.0000   0.0124  -0.0000  -0.0059   0.0000
  39 O_a :3d1+  -0.0000  -0.0000   0.0000  -0.0000  -0.0108  -0.0000   0.0000
  40 O_a :3d2+   0.0002   0.0092  -0.0000  -0.0052  -0.0000   0.0555   0.0000
  42 O_a :3d1-  -0.0000   0.0000   0.0347  -0.0000   0.0000   0.0000  -0.3611
  43 O_a :3d0   -0.0002  -0.0029   0.0000   0.0100  -0.0000  -0.0632  -0.0000
  45 O_a :3d2+   0.0008   0.0124  -0.0000  -0.0102  -0.0000   0.2090  -0.0000
  47 O_a :3d1-  -0.0000   0.0000   0.0060  -0.0000   0.0000  -0.0000  -0.5339
  48 O_a :3d0    0.0000  -0.0009   0.0000   0.0041  -0.0000  -0.0151  -0.0000
  50 O_a :3d2+   0.0001   0.0045   0.0000  -0.0033   0.0000   0.2164  -0.0000
  65 O_a :4f3-   0.0000  -0.0000   0.0067   0.0000   0.0000   0.0000  -0.0484
  68 O_a :4f0   -0.0002  -0.0035   0.0000   0.0009   0.0000  -0.0258   0.0000
  70 O_a :4f2+  -0.0004  -0.0077   0.0000   0.0057  -0.0000  -0.0589   0.0000
  72 O_a :4f3-  -0.0000   0.0000   0.0015  -0.0000   0.0000   0.0000  -0.0569
  74 O_a :4f1-   0.0000   0.0000  -0.0017  -0.0000  -0.0000   0.0000   0.0374
  75 O_a :4f0   -0.0000  -0.0016  -0.0000   0.0010   0.0000  -0.0254   0.0000
  77 O_a :4f2+  -0.0001  -0.0034   0.0000   0.0023  -0.0000  -0.0530   0.0000
  98 O_a :5g3-  -0.0000  -0.0000  -0.0017   0.0000  -0.0000  -0.0000   0.0163
 103 O_a :5g2+   0.0000   0.0016  -0.0000  -0.0009   0.0000   0.0121   0.0000
 128 H_a :1s    -0.0011  -0.4025  -0.6215   0.3712   0.0000   0.0031   0.0189
 129 H_a :1s     0.0003   0.0099   0.0083  -0.0045  -0.0000  -0.0241   0.0215
 130 H_a :1s     0.0025   0.0809   0.0871  -0.0373   0.0000   0.6116  -0.6074
 131 H_a :1s     0.0022   0.1786   0.1871  -0.0894   0.0000   1.9487  -2.0912
 132 H_a :1s     0.0006   0.0825   0.1305  -0.0784  -0.0000   1.9521  -4.2782
 133 H_a :1s     0.0000   0.0003   0.0025  -0.0003   0.0000   0.8495  -4.4389
 140 H_a :2px   -0.0000  -0.0000   0.0000  -0.0000   0.0167  -0.0000   0.0000
 141 H_a :2py   -0.0007   0.0075   0.0032  -0.0120  -0.0000  -0.1799   0.1370
 142 H_a :2pz    0.0003  -0.0053  -0.0080  -0.0050  -0.0000   0.1182  -0.1374
 143 H_a :2px   -0.0000  -0.0000   0.0000  -0.0000   0.0233  -0.0000   0.0000
 144 H_a :2py   -0.0005   0.0033  -0.0037  -0.0107  -0.0000  -0.4599   0.3523
 145 H_a :2pz    0.0004  -0.0020  -0.0039  -0.0101  -0.0000   0.3208  -0.4225
 147 H_a :2py   -0.0001  -0.0005  -0.0080   0.0041   0.0000  -0.4141   0.7606
 148 H_a :2pz    0.0001   0.0003   0.0044  -0.0072  -0.0000   0.3734  -0.7976
 155 H_a :3d1-  -0.0000   0.0012   0.0004  -0.0002   0.0000  -0.0195   0.0157
 158 H_a :3d2+  -0.0001   0.0009   0.0000  -0.0012  -0.0000  -0.0144   0.0099
 160 H_a :3d1-   0.0000   0.0025   0.0021  -0.0008   0.0000  -0.0652   0.0634
 161 H_a :3d0   -0.0001  -0.0006  -0.0011  -0.0020  -0.0000  -0.0075  -0.0353
 163 H_a :3d2+  -0.0001   0.0021   0.0006  -0.0030  -0.0000  -0.0409   0.0195
 165 H_a :3d1-   0.0000   0.0020  -0.0006   0.0009   0.0000  -0.0388   0.0755
 166 H_a :3d0   -0.0000  -0.0001  -0.0002  -0.0003  -0.0000   0.0099  -0.0414
 183 H_a :4f3-   0.0000  -0.0004  -0.0000   0.0001  -0.0000  -0.0100   0.0031
 208 H_b :1s    -0.0011  -0.4025   0.6215   0.3712   0.0000   0.0031  -0.0189
 209 H_b :1s     0.0003   0.0099  -0.0083  -0.0045  -0.0000  -0.0241  -0.0215
 210 H_b :1s     0.0025   0.0809  -0.0871  -0.0373   0.0000   0.6116   0.6074
 211 H_b :1s     0.0022   0.1786  -0.1871  -0.0894   0.0000   1.9487   2.0912
 212 H_b :1s     0.0006   0.0825  -0.1305  -0.0784  -0.0000   1.9521   4.2782
 213 H_b :1s     0.0000   0.0003  -0.0025  -0.0003   0.0000   0.8495   4.4389
 220 H_b :2px   -0.0000  -0.0000   0.0000  -0.0000   0.0167  -0.0000   0.0000
 221 H_b :2py    0.0007  -0.0075   0.0032   0.0120   0.0000   0.1799   0.1370
 222 H_b :2pz    0.0003  -0.0053   0.0080  -0.0050  -0.0000   0.1182   0.1374
 223 H_b :2px   -0.0000  -0.0000   0.0000  -0.0000   0.0233  -0.0000   0.0000
 224 H_b :2py    0.0005  -0.0033  -0.0037   0.0107   0.0000   0.4599   0.3523
 225 H_b :2pz    0.0004  -0.0020   0.0039  -0.0101  -0.0000   0.3208   0.4225
 227 H_b :2py    0.0001   0.0005  -0.0080  -0.0041  -0.0000   0.4141   0.7606
 228 H_b :2pz    0.0001   0.0003  -0.0044  -0.0072  -0.0000   0.3734   0.7976
 235 H_b :3d1-   0.0000  -0.0012   0.0004   0.0002  -0.0000   0.0195   0.0157
 238 H_b :3d2+  -0.0001   0.0009  -0.0000  -0.0012  -0.0000  -0.0144  -0.0099
 240 H_b :3d1-  -0.0000  -0.0025   0.0021   0.0008   0.0000   0.0652   0.0634
 241 H_b :3d0   -0.0001  -0.0006   0.0011  -0.0020  -0.0000  -0.0075   0.0353
 243 H_b :3d2+  -0.0001   0.0021  -0.0006  -0.0030  -0.0000  -0.0409  -0.0195
 245 H_b :3d1-  -0.0000  -0.0020  -0.0006  -0.0009  -0.0000   0.0388   0.0755
 246 H_b :3d0   -0.0000  -0.0001   0.0002  -0.0003  -0.0000   0.0099   0.0414
 263 H_b :4f3-  -0.0000   0.0004  -0.0000  -0.0001   0.0000   0.0100   0.0031

    Orbital         8        9       10       11       12       13       14
   2 O_a :1s    -0.0207  -0.0000  -0.2087   0.0000  -0.0000   0.0142   0.0000
   3 O_a :1s    -0.0006   0.0000  -0.0035   0.0000  -0.0000   0.0149  -0.0000
   4 O_a :1s    -0.0654  -0.0000  -0.2663  -0.0000   0.0000  -0.0624  -0.0000
   5 O_a :1s     0.3240  -0.0000   2.4168   0.0000  -0.0000  -0.6567   0.0000
   6 O_a :1s     3.5362  -0.0000  10.1052   0.0000  -0.0000   1.8460   0.0000
   7 O_a :1s    14.9822  -0.0000  11.1835  -0.0000  -0.0000   4.3291   0.0000
   8 O_a :2px   -0.0000   0.1539  -0.0000  -0.0000  -0.0000   0.0000  -0.0000
   9 O_a :2py   -0.0000   0.0000  -0.0000  -0.1371  -0.1109  -0.0000   0.0000
  10 O_a :2pz    0.1319  -0.0000   0.0840  -0.0000  -0.0000   0.0222  -0.0000
  12 O_a :2py   -0.0000   0.0000  -0.0000  -0.0175  -0.0566   0.0000  -0.0000
  13 O_a :2pz    0.0114  -0.0000   0.0392   0.0000  -0.0000  -0.0078   0.0000
  15 O_a :2py   -0.0000   0.0000  -0.0000   0.0504   0.5632   0.0000  -0.0000
  16 O_a :2pz   -0.0426   0.0000  -0.3145   0.0000   0.0000   0.0728  -0.0000
  17 O_a :2px    0.0000  -0.0678   0.0000   0.0000   0.0000  -0.0000  -0.0000
  18 O_a :2py   -0.0000  -0.0000  -0.0000   2.6379   0.9907   0.0000  -0.0000
  19 O_a :2pz   -0.7628   0.0000  -1.9462  -0.0000   0.0000   1.0134  -0.0000
  20 O_a :2px   -0.0000  -0.0944  -0.0000  -0.0000  -0.0000   0.0000  -0.0000
  21 O_a :2py   -0.0000  -0.0000  -0.0000   7.4606  -2.7663   0.0000   0.0000
  22 O_a :2pz   -1.7528   0.0000  -2.2835   0.0000   0.0000   1.7422  -0.0000
  23 O_a :2px   -0.0000  -2.0196  -0.0000  -0.0000  -0.0000   0.0000  -0.0000
  24 O_a :2py   -0.0000  -0.0000  -0.0000   5.8835  -1.5380   0.0000   0.0000
  25 O_a :2pz   -2.7734  -0.0000   0.6321   0.0000   0.0000   1.1040  -0.0000
  31 O_a :3d2-  -0.0000   0.0000  -0.0000  -0.0000  -0.0000   0.0000   0.0180
  32 O_a :3d1-  -0.0000  -0.0000  -0.0000   0.0102  -0.0041   0.0000  -0.0000
  33 O_a :3d0   -0.0029   0.0000   0.0009   0.0000   0.0000   0.0150   0.0000
  35 O_a :3d2+   0.0053  -0.0000   0.0051   0.0000   0.0000   0.0126  -0.0000
  36 O_a :3d2-  -0.0000   0.0000   0.0000   0.0000   0.0000  -0.0000  -0.1096
  37 O_a :3d1-  -0.0000  -0.0000  -0.0000  -0.1087  -0.2341   0.0000  -0.0000
  38 O_a :3d0    0.0107  -0.0000   0.0055  -0.0000   0.0000  -0.0947   0.0000
  39 O_a :3d1+  -0.0000   0.0181  -0.0000  -0.0000  -0.0000   0.0000  -0.0000
  40 O_a :3d2+  -0.0465  -0.0000  -0.1747  -0.0000   0.0000  -0.0443  -0.0000
  41 O_a :3d2-  -0.0000   0.0000   0.0000   0.0000   0.0000  -0.0000  -1.1506
  42 O_a :3d1-   0.0000   0.0000   0.0000  -1.0943   0.3382  -0.0000  -0.0000
  43 O_a :3d0    0.1626  -0.0000   0.0522  -0.0000  -0.0000  -1.0934   0.0000
  44 O_a :3d1+  -0.0000  -0.0505  -0.0000  -0.0000  -0.0000   0.0000   0.0000
  45 O_a :3d2+  -0.2021  -0.0000  -0.4685  -0.0000  -0.0000  -0.9497  -0.0000
  46 O_a :3d2-  -0.0000   0.0000   0.0000   0.0000   0.0000  -0.0000  -1.6541
  47 O_a :3d1-   0.0000   0.0000   0.0000  -1.9835   1.9445  -0.0000  -0.0000
  48 O_a :3d0    0.1857  -0.0000  -0.1669   0.0000  -0.0000  -1.4280   0.0000
  49 O_a :3d1+  -0.0000   0.3309  -0.0000  -0.0000  -0.0000   0.0000   0.0000
  50 O_a :3d2+  -0.3193   0.0000  -0.3138   0.0000  -0.0000  -1.3182  -0.0000
  58 O_a :4f3-  -0.0000   0.0000  -0.0000  -0.0017  -0.0161   0.0000  -0.0000
  60 O_a :4f1-   0.0000   0.0000   0.0000   0.0017   0.0222  -0.0000   0.0000
  61 O_a :4f0    0.0042   0.0000   0.0132   0.0000  -0.0000  -0.0030   0.0000
  63 O_a :4f2+   0.0041  -0.0000   0.0276   0.0000   0.0000  -0.0054   0.0000
  65 O_a :4f3-  -0.0000   0.0000  -0.0000  -0.1271  -0.0400   0.0000  -0.0000
  66 O_a :4f2-   0.0000  -0.0000  -0.0000  -0.0000  -0.0000   0.0000   0.2890
  67 O_a :4f1-   0.0000   0.0000   0.0000   0.0352  -0.1008  -0.0000   0.0000
  68 O_a :4f0    0.0204   0.0000   0.0661   0.0000   0.0000   0.1760   0.0000
  70 O_a :4f2+   0.0850  -0.0000   0.1172   0.0000   0.0000   0.0998   0.0000
  71 O_a :4f3+  -0.0000  -0.0240  -0.0000  -0.0000  -0.0000   0.0000   0.0000
  72 O_a :4f3-  -0.0000   0.0000  -0.0000  -0.1718   0.0313  -0.0000  -0.0000
  73 O_a :4f2-   0.0000   0.0000  -0.0000  -0.0000  -0.0000   0.0000   0.4478
  74 O_a :4f1-  -0.0000  -0.0000  -0.0000   0.1587  -0.3353   0.0000   0.0000
  75 O_a :4f0    0.0029   0.0000   0.0802   0.0000   0.0000   0.3007  -0.0000
  76 O_a :4f1+   0.0000  -0.0533   0.0000   0.0000   0.0000  -0.0000  -0.0000
  77 O_a :4f2+   0.1041  -0.0000   0.0699   0.0000   0.0000   0.2018   0.0000
  78 O_a :4f3+  -0.0000  -0.0580  -0.0000  -0.0000  -0.0000   0.0000   0.0000
  88 O_a :5g4-  -0.0000  -0.0000  -0.0000  -0.0000  -0.0000   0.0000   0.0111
  90 O_a :5g2-  -0.0000   0.0000   0.0000   0.0000   0.0000  -0.0000  -0.0147
  96 O_a :5g4+   0.0002   0.0000   0.0043   0.0000  -0.0000   0.0100  -0.0000
  97 O_a :5g4-   0.0000   0.0000  -0.0000  -0.0000  -0.0000   0.0000   0.0671
  98 O_a :5g3-  -0.0000  -0.0000  -0.0000   0.0503  -0.0189   0.0000   0.0000
  99 O_a :5g2-   0.0000   0.0000   0.0000   0.0000   0.0000  -0.0000  -0.0737
 100 O_a :5g1-   0.0000  -0.0000   0.0000   0.0196   0.0379   0.0000   0.0000
 101 O_a :5g0   -0.0147   0.0000  -0.0183  -0.0000  -0.0000  -0.0001  -0.0000
 103 O_a :5g2+  -0.0306   0.0000  -0.0145  -0.0000   0.0000   0.0389  -0.0000
 104 O_a :5g3+   0.0000   0.0153   0.0000   0.0000   0.0000  -0.0000  -0.0000
 105 O_a :5g4+   0.0132   0.0000  -0.0113   0.0000   0.0000   0.0514   0.0000
 118 O_a :6h4-   0.0000  -0.0000   0.0000   0.0000   0.0000  -0.0000  -0.0130
 124 O_a :6h2+   0.0026  -0.0000  -0.0004   0.0000  -0.0000  -0.0113   0.0000
 128 H_a :1s    -0.0156   0.0000   0.0679  -0.0044   0.0102  -0.0059   0.0000
 129 H_a :1s     0.0094  -0.0000   0.1043   0.0174   0.1469  -0.0457   0.0000
 130 H_a :1s    -0.7046   0.0000  -1.4620  -1.5943  -0.3373  -0.4341  -0.0000
 131 H_a :1s    -1.2092   0.0000  -4.9699  -6.1404   0.6316  -1.2114  -0.0000
 132 H_a :1s    -7.4522  -0.0000  -4.1759 -13.0152  -0.8008  -1.8936  -0.0000
 133 H_a :1s    -0.5198   0.0000  -0.9297  -4.8438  -0.6314  -0.0350  -0.0000
 138 H_a :2py    0.0107  -0.0000  -0.0153  -0.0028  -0.0113   0.0252  -0.0000
 139 H_a :2pz   -0.0108   0.0000   0.0107   0.0045   0.0130   0.0021   0.0000
 140 H_a :2px   -0.0000  -0.0280  -0.0000  -0.0000  -0.0000   0.0000   0.3392
 141 H_a :2py    0.1511  -0.0000   0.5081   0.3197   0.2159  -0.2004   0.0000
 142 H_a :2pz   -0.0661  -0.0000  -0.3793  -0.3176  -0.3186  -0.2731  -0.0000
 143 H_a :2px   -0.0000  -0.0038  -0.0000  -0.0000  -0.0000   0.0000   1.8844
 144 H_a :2py    0.4373  -0.0000   1.4832   0.7505   0.9523  -1.0886   0.0000
 145 H_a :2pz   -0.1537  -0.0000  -1.1998  -0.9529  -1.2774  -1.3312  -0.0000
 146 H_a :2px   -0.0000   0.6933  -0.0000  -0.0000  -0.0000   0.0000   3.0167
 147 H_a :2py    1.3638   0.0000   1.7261   2.0576   2.0882  -1.5434   0.0000
 148 H_a :2pz   -0.8934  -0.0000  -1.7122  -2.1881  -1.7746  -1.8352  -0.0000
 154 H_a :3d2-   0.0000   0.0039   0.0000   0.0000   0.0000  -0.0000  -0.0289
 155 H_a :3d1-   0.0202   0.0000   0.0586   0.0280   0.0594   0.0071   0.0000
 156 H_a :3d0    0.0026  -0.0000  -0.0080  -0.0098  -0.0139  -0.0239   0.0000
 157 H_a :3d1+  -0.0000   0.0045  -0.0000  -0.0000  -0.0000   0.0000   0.0152
 158 H_a :3d2+   0.0110  -0.0000   0.0403   0.0183   0.0270  -0.0151   0.0000
 159 H_a :3d2-   0.0000  -0.0100   0.0000   0.0000   0.0000  -0.0000  -0.3326
 160 H_a :3d1-   0.0095   0.0000   0.2855   0.0950   0.3115   0.0370   0.0000
 161 H_a :3d0    0.0222  -0.0000   0.0008  -0.0812  -0.1076  -0.3155   0.0000
 162 H_a :3d1+  -0.0000  -0.0231  -0.0000  -0.0000  -0.0000   0.0000   0.2632
 163 H_a :3d2+   0.0482  -0.0000   0.1485  -0.0022   0.1706  -0.2278   0.0000
 164 H_a :3d2-   0.0000  -0.1196   0.0000   0.0000   0.0000  -0.0000  -0.6635
 165 H_a :3d1-   0.0527   0.0000   0.3521   0.0422   0.6775  -0.0062   0.0000
 166 H_a :3d0    0.0398  -0.0000  -0.0323  -0.0721  -0.2515  -0.5800   0.0000
 167 H_a :3d1+  -0.0000  -0.0043  -0.0000  -0.0000  -0.0000   0.0000   0.5883
 168 H_a :3d2+   0.1112   0.0000   0.1631  -0.1501   0.5050  -0.4065   0.0000
 176 H_a :4f3-  -0.0036  -0.0000  -0.0160   0.0014  -0.0292   0.0229  -0.0000
 177 H_a :4f2-   0.0000  -0.0029   0.0000   0.0000   0.0000  -0.0000  -0.0424
 178 H_a :4f1-   0.0024   0.0000   0.0256   0.0131   0.0378   0.0320  -0.0000
 179 H_a :4f0    0.0045  -0.0000   0.0200  -0.0063   0.0177  -0.0254   0.0000
 181 H_a :4f2+   0.0074   0.0000   0.0364   0.0062   0.0510  -0.0106   0.0000
 182 H_a :4f3+   0.0000  -0.0035   0.0000   0.0000   0.0000  -0.0000  -0.0387
 183 H_a :4f3-  -0.0217  -0.0000   0.0048   0.0321  -0.0711   0.0190  -0.0000
 184 H_a :4f2-   0.0000  -0.0113   0.0000   0.0000   0.0000  -0.0000  -0.1070
 185 H_a :4f1-  -0.0021   0.0000   0.0178  -0.0013   0.0649   0.0391  -0.0000
 186 H_a :4f0   -0.0028  -0.0000   0.0321  -0.0123   0.0158  -0.0701   0.0000
 187 H_a :4f1+  -0.0000  -0.0232  -0.0000  -0.0000  -0.0000   0.0000   0.0253
 188 H_a :4f2+   0.0126   0.0000   0.0254  -0.0156   0.0868  -0.0595   0.0000
 189 H_a :4f3+   0.0000  -0.0294   0.0000   0.0000   0.0000  -0.0000  -0.0504
 200 H_a :5g3-  -0.0055  -0.0000   0.0006  -0.0033  -0.0132   0.0037   0.0000
 208 H_b :1s    -0.0156   0.0000   0.0679   0.0044  -0.0102  -0.0059   0.0000
 209 H_b :1s     0.0094  -0.0000   0.1043  -0.0174  -0.1469  -0.0457   0.0000
 210 H_b :1s    -0.7046   0.0000  -1.4620   1.5943   0.3373  -0.4341  -0.0000
 211 H_b :1s    -1.2092   0.0000  -4.9699   6.1404  -0.6316  -1.2114  -0.0000
 212 H_b :1s    -7.4522  -0.0000  -4.1759  13.0152   0.8008  -1.8936  -0.0000
 213 H_b :1s    -0.5198   0.0000  -0.9297   4.8438   0.6314  -0.0350   0.0000
 218 H_b :2py   -0.0107   0.0000   0.0153  -0.0028  -0.0113  -0.0252   0.0000
 219 H_b :2pz   -0.0108  -0.0000   0.0107  -0.0045  -0.0130   0.0021  -0.0000
 220 H_b :2px   -0.0000  -0.0280  -0.0000  -0.0000  -0.0000   0.0000  -0.3392
 221 H_b :2py   -0.1511   0.0000  -0.5081   0.3197   0.2159   0.2004  -0.0000
 222 H_b :2pz   -0.0661  -0.0000  -0.3793   0.3176   0.3186  -0.2731  -0.0000
 223 H_b :2px   -0.0000  -0.0038  -0.0000  -0.0000  -0.0000   0.0000  -1.8844
 224 H_b :2py   -0.4373   0.0000  -1.4832   0.7505   0.9523   1.0886  -0.0000
 225 H_b :2pz   -0.1537  -0.0000  -1.1998   0.9529   1.2774  -1.3312  -0.0000
 226 H_b :2px   -0.0000   0.6933  -0.0000  -0.0000  -0.0000   0.0000  -3.0167
 227 H_b :2py   -1.3638  -0.0000  -1.7261   2.0576   2.0882   1.5434  -0.0000
 228 H_b :2pz   -0.8934  -0.0000  -1.7122   2.1881   1.7746  -1.8352  -0.0000
 234 H_b :3d2-  -0.0000  -0.0039  -0.0000  -0.0000  -0.0000   0.0000  -0.0289
 235 H_b :3d1-  -0.0202  -0.0000  -0.0586   0.0280   0.0594  -0.0071  -0.0000
 236 H_b :3d0    0.0026  -0.0000  -0.0080   0.0098   0.0139  -0.0239   0.0000
 237 H_b :3d1+  -0.0000   0.0045  -0.0000  -0.0000  -0.0000   0.0000  -0.0152
 238 H_b :3d2+   0.0110  -0.0000   0.0403  -0.0183  -0.0270  -0.0151   0.0000
 239 H_b :3d2-  -0.0000   0.0100  -0.0000  -0.0000  -0.0000   0.0000  -0.3326
 240 H_b :3d1-  -0.0095   0.0000  -0.2855   0.0950   0.3115  -0.0370  -0.0000
 241 H_b :3d0    0.0222  -0.0000   0.0008   0.0812   0.1076  -0.3155   0.0000
 242 H_b :3d1+  -0.0000  -0.0231  -0.0000  -0.0000  -0.0000   0.0000  -0.2632
 243 H_b :3d2+   0.0482  -0.0000   0.1485   0.0022  -0.1706  -0.2278   0.0000
 244 H_b :3d2-  -0.0000   0.1196  -0.0000  -0.0000  -0.0000   0.0000  -0.6635
 245 H_b :3d1-  -0.0527  -0.0000  -0.3521   0.0422   0.6775   0.0062  -0.0000
 246 H_b :3d0    0.0398  -0.0000  -0.0323   0.0721   0.2515  -0.5800   0.0000
 247 H_b :3d1+  -0.0000  -0.0043  -0.0000  -0.0000  -0.0000   0.0000  -0.5883
 248 H_b :3d2+   0.1112   0.0000   0.1631   0.1501  -0.5050  -0.4065   0.0000
 256 H_b :4f3-   0.0036  -0.0000   0.0160   0.0014  -0.0292  -0.0229   0.0000
 257 H_b :4f2-  -0.0000   0.0029  -0.0000  -0.0000  -0.0000   0.0000  -0.0424
 258 H_b :4f1-  -0.0024  -0.0000  -0.0256   0.0131   0.0378  -0.0320   0.0000
 259 H_b :4f0    0.0045  -0.0000   0.0200   0.0063  -0.0177  -0.0254   0.0000
 261 H_b :4f2+   0.0074   0.0000   0.0364  -0.0062  -0.0510  -0.0106   0.0000
 262 H_b :4f3+   0.0000  -0.0035   0.0000   0.0000   0.0000  -0.0000   0.0387
 263 H_b :4f3-   0.0217   0.0000  -0.0048   0.0321  -0.0711  -0.0190   0.0000
 264 H_b :4f2-  -0.0000   0.0113  -0.0000  -0.0000  -0.0000   0.0000  -0.1070
 265 H_b :4f1-   0.0021  -0.0000  -0.0178  -0.0013   0.0649  -0.0391   0.0000
 266 H_b :4f0   -0.0028  -0.0000   0.0321   0.0123  -0.0158  -0.0701   0.0000
 267 H_b :4f1+  -0.0000  -0.0232  -0.0000  -0.0000  -0.0000   0.0000  -0.0253
 268 H_b :4f2+   0.0126   0.0000   0.0254   0.0156  -0.0868  -0.0595  -0.0000
 269 H_b :4f3+   0.0000  -0.0294   0.0000   0.0000   0.0000  -0.0000   0.0504
 280 H_b :5g3-   0.0055   0.0000  -0.0006  -0.0033  -0.0132  -0.0037  -0.0000

    Orbital        15
   8 O_a :2px    0.1302
  11 O_a :2px   -0.0162
  17 O_a :2px    2.3420
  20 O_a :2px    5.4144
  23 O_a :2px    2.7284
  34 O_a :3d1+   0.0165
  39 O_a :3d1+  -0.1005
  44 O_a :3d1+  -1.0547
  49 O_a :3d1+  -1.3294
  69 O_a :4f1+   0.0937
  71 O_a :4f3+  -0.2843
  76 O_a :4f1+   0.1707
  78 O_a :4f3+  -0.3391
  95 O_a :5g3+   0.0280
 104 O_a :5g3+   0.1378
 125 O_a :6h3+  -0.0151
 137 H_a :2px    0.0135
 140 H_a :2px   -0.4198
 143 H_a :2px   -2.0567
 146 H_a :2px   -3.2883
 154 H_a :3d2-   0.0292
 157 H_a :3d1+  -0.0282
 159 H_a :3d2-   0.4042
 162 H_a :3d1+  -0.2987
 164 H_a :3d2-   0.8038
 167 H_a :3d1+  -0.5492
 177 H_a :4f2-   0.0516
 180 H_a :4f1+  -0.0179
 182 H_a :4f3+   0.0384
 184 H_a :4f2-   0.0981
 187 H_a :4f1+  -0.0214
 189 H_a :4f3+   0.0879
 217 H_b :2px    0.0135
 220 H_b :2px   -0.4198
 223 H_b :2px   -2.0567
 226 H_b :2px   -3.2883
 234 H_b :3d2-  -0.0292
 237 H_b :3d1+  -0.0282
 239 H_b :3d2-  -0.4042
 242 H_b :3d1+  -0.2987
 244 H_b :3d2-  -0.8038
 247 H_b :3d1+  -0.5492
 257 H_b :4f2-  -0.0516
 260 H_b :4f1+  -0.0179
 262 H_b :4f3+   0.0384
 264 H_b :4f2-  -0.0981
 267 H_b :4f1+  -0.0214
 269 H_b :4f3+   0.0879

  Total CPU  time used in SIRIUS :  3 minutes 21 seconds
  Total wall time used in SIRIUS :  3 minutes 22 seconds

 
     Date and time (Linux)  : Thu Sep  7 16:37:57 2023
     Host name              : sn-mem                                  


                     .---------------------------------------.
                     | End of Wave Function Section (SIRIUS) |
                     `---------------------------------------'



                 .------------------------------------------------.
                 | Starting in Dynamic Property Section (RESPONS) |
                 `------------------------------------------------'


 ----------------------------------------------------------------------------------------
  RESPONSE  -  an MCSCF, MC-srDFT, DFT, SOPPA and SOPPA-srDFT response property program
 ----------------------------------------------------------------------------------------


 -------- OUTPUT FROM RESPONSE INPUT PROCESSING --------




 Quadratic Response calculation
 ------------------------------

 First hyperpolarizability calculation : HYPCAL= T

 Spin of operator A , ISPINA=    0
 Spin of operator B , ISPINB=    0
 Spin of operator C , ISPINC=    0

  5 B-frequencies  0.000000D+00  1.986669D-02  3.973338D-02  5.960006D-02  7.946675D-02
  5 C-frequencies  0.000000D+00  1.986669D-02  3.973338D-02  5.960006D-02  7.946675D-02


 Print level                                    : IPRHYP =   2
 Maximum number of iterations in lin.rsp. solver: MAXITL =  60
 Threshold for convergence of linear resp. eq.s : THCLR  = 1.000D-03
 Maximum iterations in optimal orbital algorithm: MAXITO =   5
 Direct one-index transformation                : DIROIT = T

    3 A OPERATORS OF SYMMETRY NO:    1 AND LABELS:

          XDIPLEN 
          YDIPLEN 
          ZDIPLEN 

    3 B OPERATORS OF SYMMETRY NO:    1 AND LABELS:

          XDIPLEN 
          YDIPLEN 
          ZDIPLEN 

    3 C OPERATORS OF SYMMETRY NO:    1 AND LABELS:

          XDIPLEN 
          YDIPLEN 
          ZDIPLEN 


   SCF energy         :      -76.067276772310166
 -- inactive part     :      -85.256810549897011
 -- nuclear repulsion :        9.189533777586849


                     ***************************************
                     *** RHF response calculation (TDHF) ***
                     ***************************************



 Linear response calculations for quadratic response
 - singlet property operator of symmetry    1  ( A  )


 Perturbation symmetry.     KSYMOP:           1
 Perturbation spin symmetry.TRPLET:           F
 Orbital variables.         KZWOPT:        1410
 Configuration variables.   KZCONF:           0
 Total number of variables. KZVAR :        1410


 QRLRVE -- linear response calculation for symmetry  1  ( A  )
 QRLRVE -- operator label : XDIPLEN 
 QRLRVE -- operator spin  :   0
 QRLRVE -- frequencies :  0.000000  0.019867  0.039733  0.059600  0.079467
                          0.099333  0.119200  0.139067  0.158934



 ---  SOLVING SETS OF LINEAR EQUATIONS FOR LINEAR RESPONSE PROPERTIES ---

 Operator symmetry = 1  ( A  ); triplet =   F


 ** RSPCTL MICROITERATION NUMBER    1

       No.  Residual tot.,    conf., and orb.    Bnorm      Frequency 
      ----------------------------------------------------------------
         1    6.98649D-01  0.00D+00  6.99D-01  2.36D+00    0.00000D+00
         2    6.99536D-01  0.00D+00  7.00D-01  2.37D+00    1.98667D-02
         3    7.02233D-01  0.00D+00  7.02D-01  2.39D+00    3.97334D-02
         4    7.06851D-01  0.00D+00  7.07D-01  2.42D+00    5.96001D-02
         5    7.13594D-01  0.00D+00  7.14D-01  2.47D+00    7.94668D-02
         6    7.22776D-01  0.00D+00  7.23D-01  2.54D+00    9.93334D-02
         7    7.34870D-01  0.00D+00  7.35D-01  2.62D+00    1.19200D-01
         8    7.50579D-01  0.00D+00  7.51D-01  2.73D+00    1.39067D-01
         9    7.70957D-01  0.00D+00  7.71D-01  2.87D+00    1.58934D-01

 ** RSPCTL MICROITERATION NUMBER    2

       No.  Residual tot.,    conf., and orb.    Bnorm      Frequency 
      ----------------------------------------------------------------
         1    7.40547D-02  0.00D+00  7.41D-02  2.44D+00    0.00000D+00
         2    7.42478D-02  0.00D+00  7.42D-02  2.45D+00    1.98667D-02
         3    7.48409D-02  0.00D+00  7.48D-02  2.47D+00    3.97334D-02
         4    7.58775D-02  0.00D+00  7.59D-02  2.51D+00    5.96001D-02
         5    7.74381D-02  0.00D+00  7.74D-02  2.57D+00    7.94668D-02
         6    7.96541D-02  0.00D+00  7.97D-02  2.65D+00    9.93334D-02
         7    8.27331D-02  0.00D+00  8.27D-02  2.75D+00    1.19200D-01
         8    8.70030D-02  0.00D+00  8.70D-02  2.89D+00    1.39067D-01
         9    9.29922D-02  0.00D+00  9.30D-02  3.07D+00    1.58934D-01

 ** RSPCTL MICROITERATION NUMBER    3

       No.  Residual tot.,    conf., and orb.    Bnorm      Frequency 
      ----------------------------------------------------------------
         1    4.29346D-03  0.00D+00  4.29D-03  2.44D+00    0.00000D+00
         2    4.36046D-03  0.00D+00  4.36D-03  2.45D+00    1.98667D-02
         3    4.56269D-03  0.00D+00  4.56D-03  2.47D+00    3.97334D-02
         4    4.90474D-03  0.00D+00  4.90D-03  2.51D+00    5.96001D-02
         5    5.39704D-03  0.00D+00  5.40D-03  2.57D+00    7.94668D-02
         6    6.05955D-03  0.00D+00  6.06D-03  2.65D+00    9.93334D-02
         7    6.92700D-03  0.00D+00  6.93D-03  2.76D+00    1.19200D-01
         8    8.05677D-03  0.00D+00  8.06D-03  2.89D+00    1.39067D-01
         9    9.54252D-03  0.00D+00  9.54D-03  3.08D+00    1.58934D-01

 ** RSPCTL MICROITERATION NUMBER    4

       No.  Residual tot.,    conf., and orb.    Bnorm      Frequency 
      ----------------------------------------------------------------
         1    2.78676D-04  0.00D+00  2.79D-04  2.44D+00    0.00000D+00
         2    2.86102D-04  0.00D+00  2.86D-04  2.45D+00    1.98667D-02
         3    3.08619D-04  0.00D+00  3.09D-04  2.47D+00    3.97334D-02
         4    3.47119D-04  0.00D+00  3.47D-04  2.51D+00    5.96001D-02
         5    4.03580D-04  0.00D+00  4.04D-04  2.57D+00    7.94668D-02
         6    4.81636D-04  0.00D+00  4.82D-04  2.65D+00    9.93334D-02
         7    5.87365D-04  0.00D+00  5.87D-04  2.76D+00    1.19200D-01
         8    7.30516D-04  0.00D+00  7.31D-04  2.89D+00    1.39067D-01
         9    9.26728D-04  0.00D+00  9.27D-04  3.08D+00    1.58934D-01

 *** THE REQUESTED    9 SOLUTION VECTORS CONVERGED

 Convergence of RSP solution vectors, threshold = 1.00D-03
 ---------------------------------------------------------------
 (dimension of paired reduced space:   72)
 RSP solution vector no.    1; norm of residual   1.14D-04
 RSP solution vector no.    2; norm of residual   1.17D-04
 RSP solution vector no.    3; norm of residual   1.25D-04
 RSP solution vector no.    4; norm of residual   1.38D-04
 RSP solution vector no.    5; norm of residual   1.57D-04
 RSP solution vector no.    6; norm of residual   1.82D-04
 RSP solution vector no.    7; norm of residual   2.13D-04
 RSP solution vector no.    8; norm of residual   2.52D-04
 RSP solution vector no.    9; norm of residual   3.01D-04

 *** RSPCTL MICROITERATIONS CONVERGED

@ QRLRVE: SINGLET SOLUTION FOR SYMMETRY    1  ( A  )    LABEL   XDIPLEN     FREQUENCY   0.000000D+00

@ QRLRVE:  << XDIPLEN  ; XDIPLEN  >> (   0.00000):     7.88103894757    

@ QRLRVE:  << YDIPLEN  ; XDIPLEN  >> (   0.00000):    4.735160587721E-16

@ QRLRVE:  << ZDIPLEN  ; XDIPLEN  >> (   0.00000):   -6.032040241586E-16

@ QRLRVE: SINGLET SOLUTION FOR SYMMETRY    1  ( A  )    LABEL   XDIPLEN     FREQUENCY   0.198667D-01

@ QRLRVE:  << XDIPLEN  ; XDIPLEN  >> (   0.01987):     7.89140147051    

@ QRLRVE:  << YDIPLEN  ; XDIPLEN  >> (   0.01987):    4.755565573215E-16

@ QRLRVE:  << ZDIPLEN  ; XDIPLEN  >> (   0.01987):   -6.050831327066E-16

@ QRLRVE: SINGLET SOLUTION FOR SYMMETRY    1  ( A  )    LABEL   XDIPLEN     FREQUENCY   0.397334D-01

@ QRLRVE:  << XDIPLEN  ; XDIPLEN  >> (   0.03973):     7.92281120796    

@ QRLRVE:  << YDIPLEN  ; XDIPLEN  >> (   0.03973):    4.817775981584E-16

@ QRLRVE:  << ZDIPLEN  ; XDIPLEN  >> (   0.03973):   -6.108125497077E-16

@ QRLRVE: SINGLET SOLUTION FOR SYMMETRY    1  ( A  )    LABEL   XDIPLEN     FREQUENCY   0.596001D-01

@ QRLRVE:  << XDIPLEN  ; XDIPLEN  >> (   0.05960):     7.97626837139    

@ QRLRVE:  << YDIPLEN  ; XDIPLEN  >> (   0.05960):    4.924899821596E-16

@ QRLRVE:  << ZDIPLEN  ; XDIPLEN  >> (   0.05960):   -6.206803201407E-16

@ QRLRVE: SINGLET SOLUTION FOR SYMMETRY    1  ( A  )    LABEL   XDIPLEN     FREQUENCY   0.794668D-01

@ QRLRVE:  << XDIPLEN  ; XDIPLEN  >> (   0.07947):     8.05355979031    

@ QRLRVE:  << YDIPLEN  ; XDIPLEN  >> (   0.07947):    5.082551027511E-16

@ QRLRVE:  << ZDIPLEN  ; XDIPLEN  >> (   0.07947):   -6.352085408477E-16

@ QRLRVE: SINGLET SOLUTION FOR SYMMETRY    1  ( A  )    LABEL   XDIPLEN     FREQUENCY   0.993334D-01

@ QRLRVE:  << XDIPLEN  ; XDIPLEN  >> (   0.09933):     8.15746758180    

@ QRLRVE:  << YDIPLEN  ; XDIPLEN  >> (   0.09933):    5.299610836243E-16

@ QRLRVE:  << ZDIPLEN  ; XDIPLEN  >> (   0.09933):   -6.552272179236E-16

@ QRLRVE: SINGLET SOLUTION FOR SYMMETRY    1  ( A  )    LABEL   XDIPLEN     FREQUENCY   0.119200D+00

@ QRLRVE:  << XDIPLEN  ; XDIPLEN  >> (   0.11920):     8.29213114612    

@ QRLRVE:  << YDIPLEN  ; XDIPLEN  >> (   0.11920):    5.589561182287E-16

@ QRLRVE:  << ZDIPLEN  ; XDIPLEN  >> (   0.11920):   -6.820038214196E-16

@ QRLRVE: SINGLET SOLUTION FOR SYMMETRY    1  ( A  )    LABEL   XDIPLEN     FREQUENCY   0.139067D+00

@ QRLRVE:  << XDIPLEN  ; XDIPLEN  >> (   0.13907):     8.46366793469    

@ QRLRVE:  << YDIPLEN  ; XDIPLEN  >> (   0.13907):    5.972796181211E-16

@ QRLRVE:  << ZDIPLEN  ; XDIPLEN  >> (   0.13907):   -7.174680781038E-16

@ QRLRVE: SINGLET SOLUTION FOR SYMMETRY    1  ( A  )    LABEL   XDIPLEN     FREQUENCY   0.158934D+00

@ QRLRVE:  << XDIPLEN  ; XDIPLEN  >> (   0.15893):     8.68126658732    

@ QRLRVE:  << YDIPLEN  ; XDIPLEN  >> (   0.15893):    6.480738344004E-16

@ QRLRVE:  << ZDIPLEN  ; XDIPLEN  >> (   0.15893):   -7.646120691044E-16


 QRLRVE -- linear response calculation for symmetry  1  ( A  )
 QRLRVE -- operator label : YDIPLEN 
 QRLRVE -- operator spin  :   0
 QRLRVE -- frequencies :  0.000000  0.019867  0.039733  0.059600  0.079467
                          0.099333  0.119200  0.139067  0.158934



 ---  SOLVING SETS OF LINEAR EQUATIONS FOR LINEAR RESPONSE PROPERTIES ---

 Operator symmetry = 1  ( A  ); triplet =   F

RSPORT:    1 out of    9 new trial vectors linear dependent

 ** RSPCTL MICROITERATION NUMBER    1

       No.  Residual tot.,    conf., and orb.    Bnorm      Frequency 
      ----------------------------------------------------------------
         1    8.77154D-01  0.00D+00  8.77D-01  2.35D+00    0.00000D+00
         2    8.77804D-01  0.00D+00  8.78D-01  2.35D+00    1.98667D-02
         3    8.79762D-01  0.00D+00  8.80D-01  2.36D+00    3.97334D-02
         4    8.83055D-01  0.00D+00  8.83D-01  2.38D+00    5.96001D-02
         5    8.87728D-01  0.00D+00  8.88D-01  2.41D+00    7.94668D-02
         6    8.93846D-01  0.00D+00  8.94D-01  2.45D+00    9.93334D-02
         7    9.01498D-01  0.00D+00  9.01D-01  2.49D+00    1.19200D-01
         8    9.10800D-01  0.00D+00  9.11D-01  2.55D+00    1.39067D-01
         9    9.21901D-01  0.00D+00  9.22D-01  2.61D+00    1.58934D-01

 ** RSPCTL MICROITERATION NUMBER    2

       No.  Residual tot.,    conf., and orb.    Bnorm      Frequency 
      ----------------------------------------------------------------
         1    8.51381D-02  0.00D+00  8.51D-02  2.43D+00    0.00000D+00
         2    8.53100D-02  0.00D+00  8.53D-02  2.43D+00    1.98667D-02
         3    8.58295D-02  0.00D+00  8.58D-02  2.45D+00    3.97334D-02
         4    8.67084D-02  0.00D+00  8.67D-02  2.47D+00    5.96001D-02
         5    8.79672D-02  0.00D+00  8.80D-02  2.50D+00    7.94668D-02
         6    8.96357D-02  0.00D+00  8.96D-02  2.54D+00    9.93334D-02
         7    9.17552D-02  0.00D+00  9.18D-02  2.59D+00    1.19200D-01
         8    9.43806D-02  0.00D+00  9.44D-02  2.65D+00    1.39067D-01
         9    9.75842D-02  0.00D+00  9.76D-02  2.72D+00    1.58934D-01

 ** RSPCTL MICROITERATION NUMBER    3

       No.  Residual tot.,    conf., and orb.    Bnorm      Frequency 
      ----------------------------------------------------------------
         1    8.01930D-03  0.00D+00  8.02D-03  2.43D+00    0.00000D+00
         2    8.05839D-03  0.00D+00  8.06D-03  2.43D+00    1.98667D-02
         3    8.17637D-03  0.00D+00  8.18D-03  2.45D+00    3.97334D-02
         4    8.37541D-03  0.00D+00  8.38D-03  2.47D+00    5.96001D-02
         5    8.65930D-03  0.00D+00  8.66D-03  2.50D+00    7.94668D-02
         6    9.03373D-03  0.00D+00  9.03D-03  2.54D+00    9.93334D-02
         7    9.50667D-03  0.00D+00  9.51D-03  2.59D+00    1.19200D-01
         8    1.00889D-02  0.00D+00  1.01D-02  2.65D+00    1.39067D-01
         9    1.07949D-02  0.00D+00  1.08D-02  2.73D+00    1.58934D-01

 ** RSPCTL MICROITERATION NUMBER    4

       No.  Residual tot.,    conf., and orb.    Bnorm      Frequency 
      ----------------------------------------------------------------
         1    7.86349D-04  0.00D+00  7.86D-04  2.43D+00    0.00000D+00
         2    7.91184D-04  0.00D+00  7.91D-04  2.43D+00    1.98667D-02
         3    8.05800D-04  0.00D+00  8.06D-04  2.45D+00    3.97334D-02
         4    8.30534D-04  0.00D+00  8.31D-04  2.47D+00    5.96001D-02
         5    8.65981D-04  0.00D+00  8.66D-04  2.50D+00    7.94668D-02
         6    9.13032D-04  0.00D+00  9.13D-04  2.54D+00    9.93334D-02
         7    9.72948D-04  0.00D+00  9.73D-04  2.59D+00    1.19200D-01
         8    1.04745D-03  0.00D+00  1.05D-03  2.65D+00    1.39067D-01
         9    1.13885D-03  0.00D+00  1.14D-03  2.73D+00    1.58934D-01

 *** THE REQUESTED    9 SOLUTION VECTORS CONVERGED

 Convergence of RSP solution vectors, threshold = 1.00D-03
 ---------------------------------------------------------------
 (dimension of paired reduced space:   70)
 RSP solution vector no.    1; norm of residual   3.24D-04
 RSP solution vector no.    2; norm of residual   3.25D-04
 RSP solution vector no.    3; norm of residual   3.29D-04
 RSP solution vector no.    4; norm of residual   3.36D-04
 RSP solution vector no.    5; norm of residual   3.46D-04
 RSP solution vector no.    6; norm of residual   3.60D-04
 RSP solution vector no.    7; norm of residual   3.76D-04
 RSP solution vector no.    8; norm of residual   3.95D-04
 RSP solution vector no.    9; norm of residual   4.18D-04

 *** RSPCTL MICROITERATIONS CONVERGED

@ QRLRVE: SINGLET SOLUTION FOR SYMMETRY    1  ( A  )    LABEL   YDIPLEN     FREQUENCY   0.000000D+00

@ QRLRVE:  << XDIPLEN  ; YDIPLEN  >> (   0.00000):    4.123834769045E-15

@ QRLRVE:  << YDIPLEN  ; YDIPLEN  >> (   0.00000):     9.18964646936    

@ QRLRVE:  << ZDIPLEN  ; YDIPLEN  >> (   0.00000):    1.349606164170E-04

@ QRLRVE: SINGLET SOLUTION FOR SYMMETRY    1  ( A  )    LABEL   YDIPLEN     FREQUENCY   0.198667D-01

@ QRLRVE:  << XDIPLEN  ; YDIPLEN  >> (   0.01987):    4.150423726286E-15

@ QRLRVE:  << YDIPLEN  ; YDIPLEN  >> (   0.01987):     9.19797677224    

@ QRLRVE:  << ZDIPLEN  ; YDIPLEN  >> (   0.01987):    1.355503781569E-04

@ QRLRVE: SINGLET SOLUTION FOR SYMMETRY    1  ( A  )    LABEL   YDIPLEN     FREQUENCY   0.397334D-01

@ QRLRVE:  << XDIPLEN  ; YDIPLEN  >> (   0.03973):    4.231179192407E-15

@ QRLRVE:  << YDIPLEN  ; YDIPLEN  >> (   0.03973):     9.22308557651    

@ QRLRVE:  << ZDIPLEN  ; YDIPLEN  >> (   0.03973):    1.373343988687E-04

@ QRLRVE: SINGLET SOLUTION FOR SYMMETRY    1  ( A  )    LABEL   YDIPLEN     FREQUENCY   0.596001D-01

@ QRLRVE:  << XDIPLEN  ; YDIPLEN  >> (   0.05960):    4.369138426680E-15

@ QRLRVE:  << YDIPLEN  ; YDIPLEN  >> (   0.05960):     9.26533132531    

@ QRLRVE:  << ZDIPLEN  ; YDIPLEN  >> (   0.05960):    1.403574513800E-04

@ QRLRVE: SINGLET SOLUTION FOR SYMMETRY    1  ( A  )    LABEL   YDIPLEN     FREQUENCY   0.794668D-01

@ QRLRVE:  << XDIPLEN  ; YDIPLEN  >> (   0.07947):    4.569614370626E-15

@ QRLRVE:  << YDIPLEN  ; YDIPLEN  >> (   0.07947):     9.32532766506    

@ QRLRVE:  << ZDIPLEN  ; YDIPLEN  >> (   0.07947):    1.446960258544E-04

@ QRLRVE: SINGLET SOLUTION FOR SYMMETRY    1  ( A  )    LABEL   YDIPLEN     FREQUENCY   0.993334D-01

@ QRLRVE:  << XDIPLEN  ; YDIPLEN  >> (   0.09933):    4.840620219171E-15

@ QRLRVE:  << YDIPLEN  ; YDIPLEN  >> (   0.09933):     9.40396921642    

@ QRLRVE:  << ZDIPLEN  ; YDIPLEN  >> (   0.09933):    1.504610397183E-04

@ QRLRVE: SINGLET SOLUTION FOR SYMMETRY    1  ( A  )    LABEL   YDIPLEN     FREQUENCY   0.119200D+00

@ QRLRVE:  << XDIPLEN  ; YDIPLEN  >> (   0.11920):    5.193577754236E-15

@ QRLRVE:  << YDIPLEN  ; YDIPLEN  >> (   0.11920):     9.50247067604    

@ QRLRVE:  << ZDIPLEN  ; YDIPLEN  >> (   0.11920):    1.578013343354E-04

@ QRLRVE: SINGLET SOLUTION FOR SYMMETRY    1  ( A  )    LABEL   YDIPLEN     FREQUENCY   0.139067D+00

@ QRLRVE:  << XDIPLEN  ; YDIPLEN  >> (   0.13907):    5.644472498391E-15

@ QRLRVE:  << YDIPLEN  ; YDIPLEN  >> (   0.13907):     9.62242279416    

@ QRLRVE:  << ZDIPLEN  ; YDIPLEN  >> (   0.13907):    1.669073391364E-04

@ QRLRVE: SINGLET SOLUTION FOR SYMMETRY    1  ( A  )    LABEL   YDIPLEN     FREQUENCY   0.158934D+00

@ QRLRVE:  << XDIPLEN  ; YDIPLEN  >> (   0.15893):    6.215763430073E-15

@ QRLRVE:  << YDIPLEN  ; YDIPLEN  >> (   0.15893):     9.76587066311    

@ QRLRVE:  << ZDIPLEN  ; YDIPLEN  >> (   0.15893):    1.780134437545E-04


 QRLRVE -- linear response calculation for symmetry  1  ( A  )
 QRLRVE -- operator label : ZDIPLEN 
 QRLRVE -- operator spin  :   0
 QRLRVE -- frequencies :  0.000000  0.019867  0.039733  0.059600  0.079467
                          0.099333  0.119200  0.139067  0.158934



 ---  SOLVING SETS OF LINEAR EQUATIONS FOR LINEAR RESPONSE PROPERTIES ---

 Operator symmetry = 1  ( A  ); triplet =   F

RSPORT:    1 out of    9 new trial vectors linear dependent

 ** RSPCTL MICROITERATION NUMBER    1

       No.  Residual tot.,    conf., and orb.    Bnorm      Frequency 
      ----------------------------------------------------------------
         1    1.56467D+00  0.00D+00  1.56D+00  2.20D+00    0.00000D+00
         2    1.56617D+00  0.00D+00  1.57D+00  2.20D+00    1.98667D-02
         3    1.57070D+00  0.00D+00  1.57D+00  2.22D+00    3.97334D-02
         4    1.57833D+00  0.00D+00  1.58D+00  2.24D+00    5.96001D-02
         5    1.58921D+00  0.00D+00  1.59D+00  2.27D+00    7.94668D-02
         6    1.60355D+00  0.00D+00  1.60D+00  2.31D+00    9.93334D-02
         7    1.62163D+00  0.00D+00  1.62D+00  2.37D+00    1.19200D-01
         8    1.64383D+00  0.00D+00  1.64D+00  2.43D+00    1.39067D-01
         9    1.67067D+00  0.00D+00  1.67D+00  2.51D+00    1.58934D-01

 ** RSPCTL MICROITERATION NUMBER    2

       No.  Residual tot.,    conf., and orb.    Bnorm      Frequency 
      ----------------------------------------------------------------
         1    3.91444D-01  0.00D+00  3.91D-01  2.40D+00    0.00000D+00
         2    3.92124D-01  0.00D+00  3.92D-01  2.40D+00    1.98667D-02
         3    3.94181D-01  0.00D+00  3.94D-01  2.42D+00    3.97334D-02
         4    3.97668D-01  0.00D+00  3.98D-01  2.44D+00    5.96001D-02
         5    4.02679D-01  0.00D+00  4.03D-01  2.48D+00    7.94668D-02
         6    4.09352D-01  0.00D+00  4.09D-01  2.54D+00    9.93334D-02
         7    4.17886D-01  0.00D+00  4.18D-01  2.60D+00    1.19200D-01
         8    4.28553D-01  0.00D+00  4.29D-01  2.69D+00    1.39067D-01
         9    4.41732D-01  0.00D+00  4.42D-01  2.79D+00    1.58934D-01

 ** RSPCTL MICROITERATION NUMBER    3

       No.  Residual tot.,    conf., and orb.    Bnorm      Frequency 
      ----------------------------------------------------------------
         1    4.88589D-02  0.00D+00  4.89D-02  2.41D+00    0.00000D+00
         2    4.89676D-02  0.00D+00  4.90D-02  2.42D+00    1.98667D-02
         3    4.92970D-02  0.00D+00  4.93D-02  2.43D+00    3.97334D-02
         4    4.98561D-02  0.00D+00  4.99D-02  2.46D+00    5.96001D-02
         5    5.06608D-02  0.00D+00  5.07D-02  2.50D+00    7.94668D-02
         6    5.17352D-02  0.00D+00  5.17D-02  2.55D+00    9.93334D-02
         7    5.31135D-02  0.00D+00  5.31D-02  2.62D+00    1.19200D-01
         8    5.48428D-02  0.00D+00  5.48D-02  2.71D+00    1.39067D-01
         9    5.69883D-02  0.00D+00  5.70D-02  2.81D+00    1.58934D-01

 ** RSPCTL MICROITERATION NUMBER    4

       No.  Residual tot.,    conf., and orb.    Bnorm      Frequency 
      ----------------------------------------------------------------
         1    3.70072D-03  0.00D+00  3.70D-03  2.41D+00    0.00000D+00
         2    3.71416D-03  0.00D+00  3.71D-03  2.42D+00    1.98667D-02
         3    3.75499D-03  0.00D+00  3.75D-03  2.43D+00    3.97334D-02
         4    3.82472D-03  0.00D+00  3.82D-03  2.46D+00    5.96001D-02
         5    3.92605D-03  0.00D+00  3.93D-03  2.50D+00    7.94668D-02
         6    4.06304D-03  0.00D+00  4.06D-03  2.55D+00    9.93334D-02
         7    4.24151D-03  0.00D+00  4.24D-03  2.62D+00    1.19200D-01
         8    4.46960D-03  0.00D+00  4.47D-03  2.71D+00    1.39067D-01
         9    4.75864D-03  0.00D+00  4.76D-03  2.81D+00    1.58934D-01

 ** RSPCTL MICROITERATION NUMBER    5

       No.  Residual tot.,    conf., and orb.    Bnorm      Frequency 
      ----------------------------------------------------------------
         1    5.61243D-04  0.00D+00  5.61D-04  2.41D+00    0.00000D+00
         2    5.65502D-04  0.00D+00  5.66D-04  2.42D+00    1.98667D-02
         3    5.78472D-04  0.00D+00  5.78D-04  2.43D+00    3.97334D-02
         4    6.00758D-04  0.00D+00  6.01D-04  2.46D+00    5.96001D-02
         5    6.33427D-04  0.00D+00  6.33D-04  2.50D+00    7.94668D-02
         6    6.78115D-04  0.00D+00  6.78D-04  2.55D+00    9.93334D-02
         7    7.37197D-04  0.00D+00  7.37D-04  2.62D+00    1.19200D-01
         8    8.14052D-04  0.00D+00  8.14D-04  2.71D+00    1.39067D-01
         9    9.13485D-04  0.00D+00  9.13D-04  2.81D+00    1.58934D-01

 *** THE REQUESTED    9 SOLUTION VECTORS CONVERGED

 Convergence of RSP solution vectors, threshold = 1.00D-03
 ---------------------------------------------------------------
 (dimension of paired reduced space:   88)
 RSP solution vector no.    1; norm of residual   2.33D-04
 RSP solution vector no.    2; norm of residual   2.34D-04
 RSP solution vector no.    3; norm of residual   2.38D-04
 RSP solution vector no.    4; norm of residual   2.44D-04
 RSP solution vector no.    5; norm of residual   2.53D-04
 RSP solution vector no.    6; norm of residual   2.66D-04
 RSP solution vector no.    7; norm of residual   2.81D-04
 RSP solution vector no.    8; norm of residual   3.01D-04
 RSP solution vector no.    9; norm of residual   3.25D-04

 *** RSPCTL MICROITERATIONS CONVERGED

@ QRLRVE: SINGLET SOLUTION FOR SYMMETRY    1  ( A  )    LABEL   ZDIPLEN     FREQUENCY   0.000000D+00

@ QRLRVE:  << XDIPLEN  ; ZDIPLEN  >> (   0.00000):    4.307238273034E-16

@ QRLRVE:  << YDIPLEN  ; ZDIPLEN  >> (   0.00000):   -1.515746934031E-04

@ QRLRVE:  << ZDIPLEN  ; ZDIPLEN  >> (   0.00000):     8.51467057845    

@ QRLRVE: SINGLET SOLUTION FOR SYMMETRY    1  ( A  )    LABEL   ZDIPLEN     FREQUENCY   0.198667D-01

@ QRLRVE:  << XDIPLEN  ; ZDIPLEN  >> (   0.01987):    4.356143296038E-16

@ QRLRVE:  << YDIPLEN  ; ZDIPLEN  >> (   0.01987):   -1.520157484951E-04

@ QRLRVE:  << ZDIPLEN  ; ZDIPLEN  >> (   0.01987):     8.52370478115    

@ QRLRVE: SINGLET SOLUTION FOR SYMMETRY    1  ( A  )    LABEL   ZDIPLEN     FREQUENCY   0.397334D-01

@ QRLRVE:  << XDIPLEN  ; ZDIPLEN  >> (   0.03973):    4.548392137915E-16

@ QRLRVE:  << YDIPLEN  ; ZDIPLEN  >> (   0.03973):   -1.533448911009E-04

@ QRLRVE:  << ZDIPLEN  ; ZDIPLEN  >> (   0.03973):     8.55098911953    

@ QRLRVE: SINGLET SOLUTION FOR SYMMETRY    1  ( A  )    LABEL   ZDIPLEN     FREQUENCY   0.596001D-01

@ QRLRVE:  << XDIPLEN  ; ZDIPLEN  >> (   0.05960):    5.029620305829E-16

@ QRLRVE:  << YDIPLEN  ; ZDIPLEN  >> (   0.05960):   -1.555796399075E-04

@ QRLRVE:  << ZDIPLEN  ; ZDIPLEN  >> (   0.05960):     8.59708021429    

@ QRLRVE: SINGLET SOLUTION FOR SYMMETRY    1  ( A  )    LABEL   ZDIPLEN     FREQUENCY   0.794668D-01

@ QRLRVE:  << XDIPLEN  ; ZDIPLEN  >> (   0.07947):    6.074951285358E-16

@ QRLRVE:  << YDIPLEN  ; ZDIPLEN  >> (   0.07947):   -1.587476264197E-04

@ QRLRVE:  << ZDIPLEN  ; ZDIPLEN  >> (   0.07947):     8.66294536450    

@ QRLRVE: SINGLET SOLUTION FOR SYMMETRY    1  ( A  )    LABEL   ZDIPLEN     FREQUENCY   0.993334D-01

@ QRLRVE:  << XDIPLEN  ; ZDIPLEN  >> (   0.09933):    8.146393485366E-16

@ QRLRVE:  << YDIPLEN  ; ZDIPLEN  >> (   0.09933):   -1.628835142708E-04

@ QRLRVE:  << ZDIPLEN  ; ZDIPLEN  >> (   0.09933):     8.75002752568    

@ QRLRVE: SINGLET SOLUTION FOR SYMMETRY    1  ( A  )    LABEL   ZDIPLEN     FREQUENCY   0.119200D+00

@ QRLRVE:  << XDIPLEN  ; ZDIPLEN  >> (   0.11920):    1.199409983200E-15

@ QRLRVE:  << YDIPLEN  ; ZDIPLEN  >> (   0.11920):   -1.680229356338E-04

@ QRLRVE:  << ZDIPLEN  ; ZDIPLEN  >> (   0.11920):     8.86034877013    

@ QRLRVE: SINGLET SOLUTION FOR SYMMETRY    1  ( A  )    LABEL   ZDIPLEN     FREQUENCY   0.139067D+00

@ QRLRVE:  << XDIPLEN  ; ZDIPLEN  >> (   0.13907):    1.883181067643E-15

@ QRLRVE:  << YDIPLEN  ; ZDIPLEN  >> (   0.13907):   -1.741908831223E-04

@ QRLRVE:  << ZDIPLEN  ; ZDIPLEN  >> (   0.13907):     8.99666830706    

@ QRLRVE: SINGLET SOLUTION FOR SYMMETRY    1  ( A  )    LABEL   ZDIPLEN     FREQUENCY   0.158934D+00

@ QRLRVE:  << XDIPLEN  ; ZDIPLEN  >> (   0.15893):    3.064450571819E-15

@ QRLRVE:  << YDIPLEN  ; ZDIPLEN  >> (   0.15893):   -1.813796628983E-04

@ QRLRVE:  << ZDIPLEN  ; ZDIPLEN  >> (   0.15893):     9.16272236114    
 
 ======================================================================
 ---  L I N E A R   R E S P O N S E   F U N C T I O N S --- 
 ======================================================================

 The -<<A;B>>(omega_b) functions from vectors generated
 in a *QUADRA calculation of <<A;B,C>>(omega_b,omega_c)

 Note: the accuracy of off-diagonal elements will be linear
 in the convergence threshold THCLR =  1.00D-03


 Perturbation symmetry.     KSYMOP:           1
 Perturbation spin symmetry.TRPLET:           F
 Orbital variables.         KZWOPT:        1410
 Configuration variables.   KZCONF:           0
 Total number of variables. KZVAR :        1410

@ Singlet linear response function in a.u.

@ A operator, symmetry, frequency:   XDIPLEN    1 -0.000000
@ B operator, symmetry, frequency:   XDIPLEN    1  0.000000

@ Value of linear response -<<A;B>>(omega):       7.881038947572

@ Singlet linear response function in a.u.

@ A operator, symmetry, frequency:   YDIPLEN    1 -0.000000
@ B operator, symmetry, frequency:   XDIPLEN    1  0.000000

@ Value of linear response -<<A;B>>(omega):       0.000000000000

@ Singlet linear response function in a.u.

@ A operator, symmetry, frequency:   ZDIPLEN    1 -0.000000
@ B operator, symmetry, frequency:   XDIPLEN    1  0.000000

@ Value of linear response -<<A;B>>(omega):      -0.000000000000

@ Singlet linear response function in a.u.

@ A operator, symmetry, frequency:   XDIPLEN    1 -0.019867
@ B operator, symmetry, frequency:   XDIPLEN    1  0.019867

@ Value of linear response -<<A;B>>(omega):       7.891401470508

@ Singlet linear response function in a.u.

@ A operator, symmetry, frequency:   YDIPLEN    1 -0.019867
@ B operator, symmetry, frequency:   XDIPLEN    1  0.019867

@ Value of linear response -<<A;B>>(omega):       0.000000000000

@ Singlet linear response function in a.u.

@ A operator, symmetry, frequency:   ZDIPLEN    1 -0.019867
@ B operator, symmetry, frequency:   XDIPLEN    1  0.019867

@ Value of linear response -<<A;B>>(omega):      -0.000000000000

@ Singlet linear response function in a.u.

@ A operator, symmetry, frequency:   XDIPLEN    1 -0.039733
@ B operator, symmetry, frequency:   XDIPLEN    1  0.039733

@ Value of linear response -<<A;B>>(omega):       7.922811207961

@ Singlet linear response function in a.u.

@ A operator, symmetry, frequency:   YDIPLEN    1 -0.039733
@ B operator, symmetry, frequency:   XDIPLEN    1  0.039733

@ Value of linear response -<<A;B>>(omega):       0.000000000000

@ Singlet linear response function in a.u.

@ A operator, symmetry, frequency:   ZDIPLEN    1 -0.039733
@ B operator, symmetry, frequency:   XDIPLEN    1  0.039733

@ Value of linear response -<<A;B>>(omega):      -0.000000000000

@ Singlet linear response function in a.u.

[...]
@ B-freq = 0.079467  C-freq = 0.059600     beta(X;Z,Y) =      0.00000000
@ B-freq = 0.079467  C-freq = 0.059600     beta(Y;Z,Y) =     11.17386133
@ B-freq = 0.079467  C-freq = 0.059600     beta(Z;Z,Y) =      0.00263106
@ B-freq = 0.000000  C-freq = 0.079467     beta(X;X,Y) = beta(X,Y,X)
@ B-freq = 0.000000  C-freq = 0.079467     beta(Y;X,Y) = beta(Y,Y,X)
@ B-freq = 0.000000  C-freq = 0.079467     beta(Z;X,Y) = beta(Z,Y,X)
@ B-freq = 0.019867  C-freq = 0.079467     beta(X;X,Y) = beta(X,Y,X)
@ B-freq = 0.019867  C-freq = 0.079467     beta(Y;X,Y) = beta(Y,Y,X)
@ B-freq = 0.019867  C-freq = 0.079467     beta(Z;X,Y) = beta(Z,Y,X)
@ B-freq = 0.039733  C-freq = 0.079467     beta(X;X,Y) = beta(X,Y,X)
@ B-freq = 0.039733  C-freq = 0.079467     beta(Y;X,Y) = beta(Y,Y,X)
@ B-freq = 0.039733  C-freq = 0.079467     beta(Z;X,Y) = beta(Z,Y,X)
@ B-freq = 0.059600  C-freq = 0.079467     beta(X;X,Y) = beta(X,Y,X)
@ B-freq = 0.059600  C-freq = 0.079467     beta(Y;X,Y) = beta(Y,Y,X)
@ B-freq = 0.059600  C-freq = 0.079467     beta(Z;X,Y) = beta(Z,Y,X)
@ B-freq = 0.079467  C-freq = 0.079467     beta(X;X,Y) = beta(X,Y,X)
@ B-freq = 0.079467  C-freq = 0.079467     beta(Y;X,Y) = beta(Y,Y,X)
@ B-freq = 0.079467  C-freq = 0.079467     beta(Z;X,Y) = beta(Z,Y,X)
@ B-freq = 0.000000  C-freq = 0.079467     beta(X;Y,Y) = beta(X,Y,Y)
@ B-freq = 0.000000  C-freq = 0.079467     beta(Y;Y,Y) = beta(Y,Y,Y)
@ B-freq = 0.000000  C-freq = 0.079467     beta(Z;Y,Y) = beta(Z,Y,Y)
@ B-freq = 0.019867  C-freq = 0.079467     beta(X;Y,Y) = beta(X,Y,Y)
@ B-freq = 0.019867  C-freq = 0.079467     beta(Y;Y,Y) = beta(Y,Y,Y)
@ B-freq = 0.019867  C-freq = 0.079467     beta(Z;Y,Y) = beta(Z,Y,Y)
@ B-freq = 0.039733  C-freq = 0.079467     beta(X;Y,Y) = beta(X,Y,Y)
@ B-freq = 0.039733  C-freq = 0.079467     beta(Y;Y,Y) = beta(Y,Y,Y)
@ B-freq = 0.039733  C-freq = 0.079467     beta(Z;Y,Y) = beta(Z,Y,Y)
@ B-freq = 0.059600  C-freq = 0.079467     beta(X;Y,Y) = beta(X,Y,Y)
@ B-freq = 0.059600  C-freq = 0.079467     beta(Y;Y,Y) = beta(Y,Y,Y)
@ B-freq = 0.059600  C-freq = 0.079467     beta(Z;Y,Y) = beta(Z,Y,Y)
@ B-freq = 0.079467  C-freq = 0.079467     beta(X;Y,Y) =     -0.00000000
@ B-freq = 0.079467  C-freq = 0.079467     beta(Y;Y,Y) =      0.00026644
@ B-freq = 0.079467  C-freq = 0.079467     beta(Z;Y,Y) =     11.70315229
@ B-freq = 0.000000  C-freq = 0.079467     beta(X;Z,Y) =      0.00000000
@ B-freq = 0.000000  C-freq = 0.079467     beta(Y;Z,Y) =     10.33828697
@ B-freq = 0.000000  C-freq = 0.079467     beta(Z;Z,Y) =      0.00220390
@ B-freq = 0.019867  C-freq = 0.079467     beta(X;Z,Y) =      0.00000000
@ B-freq = 0.019867  C-freq = 0.079467     beta(Y;Z,Y) =     10.52638100
@ B-freq = 0.019867  C-freq = 0.079467     beta(Z;Z,Y) =      0.00229566
@ B-freq = 0.039733  C-freq = 0.079467     beta(X;Z,Y) =      0.00000000
@ B-freq = 0.039733  C-freq = 0.079467     beta(Y;Z,Y) =     10.79958243
@ B-freq = 0.039733  C-freq = 0.079467     beta(Z;Z,Y) =      0.00243728
@ B-freq = 0.059600  C-freq = 0.079467     beta(X;Z,Y) =      0.00000000
@ B-freq = 0.059600  C-freq = 0.079467     beta(Y;Z,Y) =     11.16817635
@ B-freq = 0.059600  C-freq = 0.079467     beta(Z;Z,Y) =      0.00264495
@ B-freq = 0.079467  C-freq = 0.079467     beta(X;Z,Y) =      0.00000000
@ B-freq = 0.079467  C-freq = 0.079467     beta(Y;Z,Y) =     11.64699019
@ B-freq = 0.079467  C-freq = 0.079467     beta(Z;Z,Y) =      0.00294490
@ B-freq = 0.000000  C-freq = 0.000000     beta(X;X,Z) = beta(Z,X,X)
@ B-freq = 0.000000  C-freq = 0.000000     beta(Y;X,Z) = beta(Z,Y,X)
@ B-freq = 0.000000  C-freq = 0.000000     beta(Z;X,Z) = beta(Z,Z,X)
@ B-freq = 0.019867  C-freq = 0.000000     beta(X;X,Z) = beta(X,Z,X)
@ B-freq = 0.019867  C-freq = 0.000000     beta(Y;X,Z) = beta(Y,Z,X)
@ B-freq = 0.019867  C-freq = 0.000000     beta(Z;X,Z) = beta(Z,Z,X)
@ B-freq = 0.039733  C-freq = 0.000000     beta(X;X,Z) = beta(X,Z,X)
@ B-freq = 0.039733  C-freq = 0.000000     beta(Y;X,Z) = beta(Y,Z,X)
@ B-freq = 0.039733  C-freq = 0.000000     beta(Z;X,Z) = beta(Z,Z,X)
@ B-freq = 0.059600  C-freq = 0.000000     beta(X;X,Z) = beta(X,Z,X)
@ B-freq = 0.059600  C-freq = 0.000000     beta(Y;X,Z) = beta(Y,Z,X)
@ B-freq = 0.059600  C-freq = 0.000000     beta(Z;X,Z) = beta(Z,Z,X)
@ B-freq = 0.079467  C-freq = 0.000000     beta(X;X,Z) = beta(X,Z,X)
@ B-freq = 0.079467  C-freq = 0.000000     beta(Y;X,Z) = beta(Y,Z,X)
@ B-freq = 0.079467  C-freq = 0.000000     beta(Z;X,Z) = beta(Z,Z,X)
@ B-freq = 0.000000  C-freq = 0.000000     beta(X;Y,Z) = beta(Z,Y,X)
@ B-freq = 0.000000  C-freq = 0.000000     beta(Y;Y,Z) = beta(Z,Y,Y)
@ B-freq = 0.000000  C-freq = 0.000000     beta(Z;Y,Z) = beta(Z,Z,Y)
@ B-freq = 0.019867  C-freq = 0.000000     beta(X;Y,Z) = beta(X,Z,Y)
@ B-freq = 0.019867  C-freq = 0.000000     beta(Y;Y,Z) = beta(Y,Z,Y)
@ B-freq = 0.019867  C-freq = 0.000000     beta(Z;Y,Z) = beta(Z,Z,Y)
@ B-freq = 0.039733  C-freq = 0.000000     beta(X;Y,Z) = beta(X,Z,Y)
@ B-freq = 0.039733  C-freq = 0.000000     beta(Y;Y,Z) = beta(Y,Z,Y)
@ B-freq = 0.039733  C-freq = 0.000000     beta(Z;Y,Z) = beta(Z,Z,Y)
@ B-freq = 0.059600  C-freq = 0.000000     beta(X;Y,Z) = beta(X,Z,Y)
@ B-freq = 0.059600  C-freq = 0.000000     beta(Y;Y,Z) = beta(Y,Z,Y)
@ B-freq = 0.059600  C-freq = 0.000000     beta(Z;Y,Z) = beta(Z,Z,Y)
@ B-freq = 0.079467  C-freq = 0.000000     beta(X;Y,Z) = beta(X,Z,Y)
@ B-freq = 0.079467  C-freq = 0.000000     beta(Y;Y,Z) = beta(Y,Z,Y)
@ B-freq = 0.079467  C-freq = 0.000000     beta(Z;Y,Z) = beta(Z,Z,Y)
@ B-freq = 0.000000  C-freq = 0.000000     beta(X;Z,Z) = beta(Z,Z,X)
@ B-freq = 0.000000  C-freq = 0.000000     beta(Y;Z,Z) = beta(Z,Z,Y)
@ B-freq = 0.000000  C-freq = 0.000000     beta(X;Z,Z) =     -0.00000000
@ B-freq = 0.000000  C-freq = 0.000000     beta(Y;Z,Z) =      0.00189814
@ B-freq = 0.000000  C-freq = 0.000000     beta(Z;Z,Z) =      7.60942640
@ B-freq = 0.019867  C-freq = 0.000000     beta(X;Z,Z) =     -0.00000000
@ B-freq = 0.019867  C-freq = 0.000000     beta(Y;Z,Z) =      0.00191578
@ B-freq = 0.019867  C-freq = 0.000000     beta(Z;Z,Z) =      7.64417566
@ B-freq = 0.039733  C-freq = 0.000000     beta(X;Z,Z) =     -0.00000000
@ B-freq = 0.039733  C-freq = 0.000000     beta(Y;Z,Z) =      0.00196981
@ B-freq = 0.039733  C-freq = 0.000000     beta(Z;Z,Z) =      7.74996289
@ B-freq = 0.059600  C-freq = 0.000000     beta(X;Z,Z) =     -0.00000000
@ B-freq = 0.059600  C-freq = 0.000000     beta(Y;Z,Z) =      0.00206375
@ B-freq = 0.059600  C-freq = 0.000000     beta(Z;Z,Z) =      7.93156431
@ B-freq = 0.079467  C-freq = 0.000000     beta(X;Z,Z) =     -0.00000000
@ B-freq = 0.079467  C-freq = 0.000000     beta(Y;Z,Z) =      0.00220390
@ B-freq = 0.079467  C-freq = 0.000000     beta(Z;Z,Z) =      8.19749563
@ B-freq = 0.000000  C-freq = 0.019867     beta(X;X,Z) = beta(X,Z,X)
@ B-freq = 0.000000  C-freq = 0.019867     beta(Y;X,Z) = beta(Y,Z,X)
@ B-freq = 0.000000  C-freq = 0.019867     beta(Z;X,Z) = beta(Z,Z,X)
@ B-freq = 0.019867  C-freq = 0.019867     beta(X;X,Z) = beta(X,Z,X)
@ B-freq = 0.019867  C-freq = 0.019867     beta(Y;X,Z) = beta(Y,Z,X)
@ B-freq = 0.019867  C-freq = 0.019867     beta(Z;X,Z) = beta(Z,Z,X)
@ B-freq = 0.039733  C-freq = 0.019867     beta(X;X,Z) = beta(X,Z,X)
@ B-freq = 0.039733  C-freq = 0.019867     beta(Y;X,Z) = beta(Y,Z,X)
@ B-freq = 0.039733  C-freq = 0.019867     beta(Z;X,Z) = beta(Z,Z,X)
@ B-freq = 0.059600  C-freq = 0.019867     beta(X;X,Z) = beta(X,Z,X)
@ B-freq = 0.059600  C-freq = 0.019867     beta(Y;X,Z) = beta(Y,Z,X)
@ B-freq = 0.059600  C-freq = 0.019867     beta(Z;X,Z) = beta(Z,Z,X)
@ B-freq = 0.079467  C-freq = 0.019867     beta(X;X,Z) = beta(X,Z,X)
@ B-freq = 0.079467  C-freq = 0.019867     beta(Y;X,Z) = beta(Y,Z,X)
@ B-freq = 0.079467  C-freq = 0.019867     beta(Z;X,Z) = beta(Z,Z,X)
@ B-freq = 0.000000  C-freq = 0.019867     beta(X;Y,Z) = beta(X,Z,Y)
@ B-freq = 0.000000  C-freq = 0.019867     beta(Y;Y,Z) = beta(Y,Z,Y)
@ B-freq = 0.000000  C-freq = 0.019867     beta(Z;Y,Z) = beta(Z,Z,Y)
@ B-freq = 0.019867  C-freq = 0.019867     beta(X;Y,Z) = beta(X,Z,Y)
@ B-freq = 0.019867  C-freq = 0.019867     beta(Y;Y,Z) = beta(Y,Z,Y)
@ B-freq = 0.019867  C-freq = 0.019867     beta(Z;Y,Z) = beta(Z,Z,Y)
@ B-freq = 0.039733  C-freq = 0.019867     beta(X;Y,Z) = beta(X,Z,Y)
@ B-freq = 0.039733  C-freq = 0.019867     beta(Y;Y,Z) = beta(Y,Z,Y)
@ B-freq = 0.039733  C-freq = 0.019867     beta(Z;Y,Z) = beta(Z,Z,Y)
@ B-freq = 0.059600  C-freq = 0.019867     beta(X;Y,Z) = beta(X,Z,Y)
@ B-freq = 0.059600  C-freq = 0.019867     beta(Y;Y,Z) = beta(Y,Z,Y)
@ B-freq = 0.059600  C-freq = 0.019867     beta(Z;Y,Z) = beta(Z,Z,Y)
@ B-freq = 0.079467  C-freq = 0.019867     beta(X;Y,Z) = beta(X,Z,Y)
@ B-freq = 0.079467  C-freq = 0.019867     beta(Y;Y,Z) = beta(Y,Z,Y)
@ B-freq = 0.079467  C-freq = 0.019867     beta(Z;Y,Z) = beta(Z,Z,Y)
@ B-freq = 0.000000  C-freq = 0.019867     beta(X;Z,Z) = beta(X,Z,Z)
@ B-freq = 0.000000  C-freq = 0.019867     beta(Y;Z,Z) = beta(Y,Z,Z)
@ B-freq = 0.000000  C-freq = 0.019867     beta(Z;Z,Z) = beta(Z,Z,Z)
@ B-freq = 0.019867  C-freq = 0.019867     beta(X;Z,Z) =     -0.00000000
@ B-freq = 0.019867  C-freq = 0.019867     beta(Y;Z,Z) =      0.00195489
@ B-freq = 0.019867  C-freq = 0.019867     beta(Z;Z,Z) =      7.71444175
@ B-freq = 0.039733  C-freq = 0.019867     beta(X;Z,Z) =     -0.00000000
@ B-freq = 0.039733  C-freq = 0.019867     beta(Y;Z,Z) =      0.00203213
@ B-freq = 0.039733  C-freq = 0.019867     beta(Z;Z,Z) =      7.85811820
@ B-freq = 0.059600  C-freq = 0.019867     beta(X;Z,Z) =     -0.00000000
@ B-freq = 0.059600  C-freq = 0.019867     beta(Y;Z,Z) =      0.00215228
@ B-freq = 0.059600  C-freq = 0.019867     beta(Z;Z,Z) =      8.08182032
@ B-freq = 0.079467  C-freq = 0.019867     beta(X;Z,Z) =      0.00000000
@ B-freq = 0.079467  C-freq = 0.019867     beta(Y;Z,Z) =      0.00232324
@ B-freq = 0.079467  C-freq = 0.019867     beta(Z;Z,Z) =      8.39634947
@ B-freq = 0.000000  C-freq = 0.039733     beta(X;X,Z) = beta(X,Z,X)
@ B-freq = 0.000000  C-freq = 0.039733     beta(Y;X,Z) = beta(Y,Z,X)
@ B-freq = 0.000000  C-freq = 0.039733     beta(Z;X,Z) = beta(Z,Z,X)
@ B-freq = 0.019867  C-freq = 0.039733     beta(X;X,Z) = beta(X,Z,X)
@ B-freq = 0.019867  C-freq = 0.039733     beta(Y;X,Z) = beta(Y,Z,X)
@ B-freq = 0.019867  C-freq = 0.039733     beta(Z;X,Z) = beta(Z,Z,X)
@ B-freq = 0.039733  C-freq = 0.039733     beta(X;X,Z) = beta(X,Z,X)
@ B-freq = 0.039733  C-freq = 0.039733     beta(Y;X,Z) = beta(Y,Z,X)
@ B-freq = 0.039733  C-freq = 0.039733     beta(Z;X,Z) = beta(Z,Z,X)
@ B-freq = 0.059600  C-freq = 0.039733     beta(X;X,Z) = beta(X,Z,X)
@ B-freq = 0.059600  C-freq = 0.039733     beta(Y;X,Z) = beta(Y,Z,X)
@ B-freq = 0.059600  C-freq = 0.039733     beta(Z;X,Z) = beta(Z,Z,X)
@ B-freq = 0.079467  C-freq = 0.039733     beta(X;X,Z) = beta(X,Z,X)
@ B-freq = 0.079467  C-freq = 0.039733     beta(Y;X,Z) = beta(Y,Z,X)
@ B-freq = 0.079467  C-freq = 0.039733     beta(Z;X,Z) = beta(Z,Z,X)
@ B-freq = 0.000000  C-freq = 0.039733     beta(X;Y,Z) = beta(X,Z,Y)
@ B-freq = 0.000000  C-freq = 0.039733     beta(Y;Y,Z) = beta(Y,Z,Y)
@ B-freq = 0.000000  C-freq = 0.039733     beta(Z;Y,Z) = beta(Z,Z,Y)
@ B-freq = 0.019867  C-freq = 0.039733     beta(X;Y,Z) = beta(X,Z,Y)
@ B-freq = 0.019867  C-freq = 0.039733     beta(Y;Y,Z) = beta(Y,Z,Y)
@ B-freq = 0.019867  C-freq = 0.039733     beta(Z;Y,Z) = beta(Z,Z,Y)
@ B-freq = 0.039733  C-freq = 0.039733     beta(X;Y,Z) = beta(X,Z,Y)
@ B-freq = 0.039733  C-freq = 0.039733     beta(Y;Y,Z) = beta(Y,Z,Y)
@ B-freq = 0.039733  C-freq = 0.039733     beta(Z;Y,Z) = beta(Z,Z,Y)
@ B-freq = 0.059600  C-freq = 0.039733     beta(X;Y,Z) = beta(X,Z,Y)
@ B-freq = 0.059600  C-freq = 0.039733     beta(Y;Y,Z) = beta(Y,Z,Y)
@ B-freq = 0.059600  C-freq = 0.039733     beta(Z;Y,Z) = beta(Z,Z,Y)
@ B-freq = 0.079467  C-freq = 0.039733     beta(X;Y,Z) = beta(X,Z,Y)
@ B-freq = 0.079467  C-freq = 0.039733     beta(Y;Y,Z) = beta(Y,Z,Y)
@ B-freq = 0.079467  C-freq = 0.039733     beta(Z;Y,Z) = beta(Z,Z,Y)
@ B-freq = 0.000000  C-freq = 0.039733     beta(X;Z,Z) = beta(X,Z,Z)
@ B-freq = 0.000000  C-freq = 0.039733     beta(Y;Z,Z) = beta(Y,Z,Z)
@ B-freq = 0.000000  C-freq = 0.039733     beta(Z;Z,Z) = beta(Z,Z,Z)
@ B-freq = 0.019867  C-freq = 0.039733     beta(X;Z,Z) = beta(X,Z,Z)
@ B-freq = 0.019867  C-freq = 0.039733     beta(Y;Z,Z) = beta(Y,Z,Z)
@ B-freq = 0.019867  C-freq = 0.039733     beta(Z;Z,Z) = beta(Z,Z,Z)
@ B-freq = 0.039733  C-freq = 0.039733     beta(X;Z,Z) =     -0.00000000
@ B-freq = 0.039733  C-freq = 0.039733     beta(Y;Z,Z) =      0.00213562
@ B-freq = 0.039733  C-freq = 0.039733     beta(Z;Z,Z) =      8.04384893
@ B-freq = 0.059600  C-freq = 0.039733     beta(X;Z,Z) =      0.00000000
@ B-freq = 0.059600  C-freq = 0.039733     beta(Y;Z,Z) =      0.00228661
@ B-freq = 0.059600  C-freq = 0.039733     beta(Z;Z,Z) =      8.31597360
@ B-freq = 0.079467  C-freq = 0.039733     beta(X;Z,Z) =      0.00000000
@ B-freq = 0.079467  C-freq = 0.039733     beta(Y;Z,Z) =      0.00249492
@ B-freq = 0.079467  C-freq = 0.039733     beta(Z;Z,Z) =      8.68818112
@ B-freq = 0.000000  C-freq = 0.059600     beta(X;X,Z) = beta(X,Z,X)
@ B-freq = 0.000000  C-freq = 0.059600     beta(Y;X,Z) = beta(Y,Z,X)
@ B-freq = 0.000000  C-freq = 0.059600     beta(Z;X,Z) = beta(Z,Z,X)
@ B-freq = 0.019867  C-freq = 0.059600     beta(X;X,Z) = beta(X,Z,X)
@ B-freq = 0.019867  C-freq = 0.059600     beta(Y;X,Z) = beta(Y,Z,X)
@ B-freq = 0.019867  C-freq = 0.059600     beta(Z;X,Z) = beta(Z,Z,X)
@ B-freq = 0.039733  C-freq = 0.059600     beta(X;X,Z) = beta(X,Z,X)
@ B-freq = 0.039733  C-freq = 0.059600     beta(Y;X,Z) = beta(Y,Z,X)
@ B-freq = 0.039733  C-freq = 0.059600     beta(Z;X,Z) = beta(Z,Z,X)
@ B-freq = 0.059600  C-freq = 0.059600     beta(X;X,Z) = beta(X,Z,X)
@ B-freq = 0.059600  C-freq = 0.059600     beta(Y;X,Z) = beta(Y,Z,X)
@ B-freq = 0.059600  C-freq = 0.059600     beta(Z;X,Z) = beta(Z,Z,X)
@ B-freq = 0.079467  C-freq = 0.059600     beta(X;X,Z) = beta(X,Z,X)
@ B-freq = 0.079467  C-freq = 0.059600     beta(Y;X,Z) = beta(Y,Z,X)
@ B-freq = 0.079467  C-freq = 0.059600     beta(Z;X,Z) = beta(Z,Z,X)
@ B-freq = 0.000000  C-freq = 0.059600     beta(X;Y,Z) = beta(X,Z,Y)
@ B-freq = 0.000000  C-freq = 0.059600     beta(Y;Y,Z) = beta(Y,Z,Y)
@ B-freq = 0.000000  C-freq = 0.059600     beta(Z;Y,Z) = beta(Z,Z,Y)
@ B-freq = 0.019867  C-freq = 0.059600     beta(X;Y,Z) = beta(X,Z,Y)
@ B-freq = 0.019867  C-freq = 0.059600     beta(Y;Y,Z) = beta(Y,Z,Y)
@ B-freq = 0.019867  C-freq = 0.059600     beta(Z;Y,Z) = beta(Z,Z,Y)
@ B-freq = 0.039733  C-freq = 0.059600     beta(X;Y,Z) = beta(X,Z,Y)
@ B-freq = 0.039733  C-freq = 0.059600     beta(Y;Y,Z) = beta(Y,Z,Y)
@ B-freq = 0.039733  C-freq = 0.059600     beta(Z;Y,Z) = beta(Z,Z,Y)
@ B-freq = 0.059600  C-freq = 0.059600     beta(X;Y,Z) = beta(X,Z,Y)
@ B-freq = 0.059600  C-freq = 0.059600     beta(Y;Y,Z) = beta(Y,Z,Y)
@ B-freq = 0.059600  C-freq = 0.059600     beta(Z;Y,Z) = beta(Z,Z,Y)
@ B-freq = 0.079467  C-freq = 0.059600     beta(X;Y,Z) = beta(X,Z,Y)
@ B-freq = 0.079467  C-freq = 0.059600     beta(Y;Y,Z) = beta(Y,Z,Y)
@ B-freq = 0.079467  C-freq = 0.059600     beta(Z;Y,Z) = beta(Z,Z,Y)
@ B-freq = 0.000000  C-freq = 0.059600     beta(X;Z,Z) = beta(X,Z,Z)
@ B-freq = 0.000000  C-freq = 0.059600     beta(Y;Z,Z) = beta(Y,Z,Z)
@ B-freq = 0.000000  C-freq = 0.059600     beta(Z;Z,Z) = beta(Z,Z,Z)
@ B-freq = 0.019867  C-freq = 0.059600     beta(X;Z,Z) = beta(X,Z,Z)
@ B-freq = 0.019867  C-freq = 0.059600     beta(Y;Z,Z) = beta(Y,Z,Z)
@ B-freq = 0.019867  C-freq = 0.059600     beta(Z;Z,Z) = beta(Z,Z,Z)
@ B-freq = 0.039733  C-freq = 0.059600     beta(X;Z,Z) = beta(X,Z,Z)
@ B-freq = 0.039733  C-freq = 0.059600     beta(Y;Z,Z) = beta(Y,Z,Z)
@ B-freq = 0.039733  C-freq = 0.059600     beta(Z;Z,Z) = beta(Z,Z,Z)
@ B-freq = 0.059600  C-freq = 0.059600     beta(X;Z,Z) =      0.00000000
@ B-freq = 0.059600  C-freq = 0.059600     beta(Y;Z,Z) =      0.00247492
@ B-freq = 0.059600  C-freq = 0.059600     beta(Z;Z,Z) =      8.64562515
@ B-freq = 0.079467  C-freq = 0.059600     beta(X;Z,Z) =      0.00000000
@ B-freq = 0.079467  C-freq = 0.059600     beta(Y;Z,Z) =      0.00272952
@ B-freq = 0.079467  C-freq = 0.059600     beta(Z;Z,Z) =      9.08827160
@ B-freq = 0.000000  C-freq = 0.079467     beta(X;X,Z) = beta(X,Z,X)
@ B-freq = 0.000000  C-freq = 0.079467     beta(Y;X,Z) = beta(Y,Z,X)
@ B-freq = 0.000000  C-freq = 0.079467     beta(Z;X,Z) = beta(Z,Z,X)
@ B-freq = 0.019867  C-freq = 0.079467     beta(X;X,Z) = beta(X,Z,X)
@ B-freq = 0.019867  C-freq = 0.079467     beta(Y;X,Z) = beta(Y,Z,X)
@ B-freq = 0.019867  C-freq = 0.079467     beta(Z;X,Z) = beta(Z,Z,X)
@ B-freq = 0.039733  C-freq = 0.079467     beta(X;X,Z) = beta(X,Z,X)
@ B-freq = 0.039733  C-freq = 0.079467     beta(Y;X,Z) = beta(Y,Z,X)
@ B-freq = 0.039733  C-freq = 0.079467     beta(Z;X,Z) = beta(Z,Z,X)
@ B-freq = 0.059600  C-freq = 0.079467     beta(X;X,Z) = beta(X,Z,X)
@ B-freq = 0.059600  C-freq = 0.079467     beta(Y;X,Z) = beta(Y,Z,X)
@ B-freq = 0.059600  C-freq = 0.079467     beta(Z;X,Z) = beta(Z,Z,X)
@ B-freq = 0.079467  C-freq = 0.079467     beta(X;X,Z) = beta(X,Z,X)
@ B-freq = 0.079467  C-freq = 0.079467     beta(Y;X,Z) = beta(Y,Z,X)
@ B-freq = 0.079467  C-freq = 0.079467     beta(Z;X,Z) = beta(Z,Z,X)
@ B-freq = 0.000000  C-freq = 0.079467     beta(X;Y,Z) = beta(X,Z,Y)
@ B-freq = 0.000000  C-freq = 0.079467     beta(Y;Y,Z) = beta(Y,Z,Y)
@ B-freq = 0.000000  C-freq = 0.079467     beta(Z;Y,Z) = beta(Z,Z,Y)
@ B-freq = 0.019867  C-freq = 0.079467     beta(X;Y,Z) = beta(X,Z,Y)
@ B-freq = 0.019867  C-freq = 0.079467     beta(Y;Y,Z) = beta(Y,Z,Y)
@ B-freq = 0.019867  C-freq = 0.079467     beta(Z;Y,Z) = beta(Z,Z,Y)
@ B-freq = 0.039733  C-freq = 0.079467     beta(X;Y,Z) = beta(X,Z,Y)
@ B-freq = 0.039733  C-freq = 0.079467     beta(Y;Y,Z) = beta(Y,Z,Y)
@ B-freq = 0.039733  C-freq = 0.079467     beta(Z;Y,Z) = beta(Z,Z,Y)
@ B-freq = 0.059600  C-freq = 0.079467     beta(X;Y,Z) = beta(X,Z,Y)
@ B-freq = 0.059600  C-freq = 0.079467     beta(Y;Y,Z) = beta(Y,Z,Y)
@ B-freq = 0.059600  C-freq = 0.079467     beta(Z;Y,Z) = beta(Z,Z,Y)
@ B-freq = 0.079467  C-freq = 0.079467     beta(X;Y,Z) = beta(X,Z,Y)
@ B-freq = 0.079467  C-freq = 0.079467     beta(Y;Y,Z) = beta(Y,Z,Y)
@ B-freq = 0.079467  C-freq = 0.079467     beta(Z;Y,Z) = beta(Z,Z,Y)
@ B-freq = 0.000000  C-freq = 0.079467     beta(X;Z,Z) = beta(X,Z,Z)
@ B-freq = 0.000000  C-freq = 0.079467     beta(Y;Z,Z) = beta(Y,Z,Z)
@ B-freq = 0.000000  C-freq = 0.079467     beta(Z;Z,Z) = beta(Z,Z,Z)
@ B-freq = 0.019867  C-freq = 0.079467     beta(X;Z,Z) = beta(X,Z,Z)
@ B-freq = 0.019867  C-freq = 0.079467     beta(Y;Z,Z) = beta(Y,Z,Z)
@ B-freq = 0.019867  C-freq = 0.079467     beta(Z;Z,Z) = beta(Z,Z,Z)
@ B-freq = 0.039733  C-freq = 0.079467     beta(X;Z,Z) = beta(X,Z,Z)
@ B-freq = 0.039733  C-freq = 0.079467     beta(Y;Z,Z) = beta(Y,Z,Z)
@ B-freq = 0.039733  C-freq = 0.079467     beta(Z;Z,Z) = beta(Z,Z,Z)
@ B-freq = 0.059600  C-freq = 0.079467     beta(X;Z,Z) = beta(X,Z,Z)
@ B-freq = 0.059600  C-freq = 0.079467     beta(Y;Z,Z) = beta(Y,Z,Z)
@ B-freq = 0.059600  C-freq = 0.079467     beta(Z;Z,Z) = beta(Z,Z,Z)
@ B-freq = 0.079467  C-freq = 0.079467     beta(X;Z,Z) =      0.00000000
@ B-freq = 0.079467  C-freq = 0.079467     beta(Y;Z,Z) =      0.00304247
@ B-freq = 0.079467  C-freq = 0.079467     beta(Z;Z,Z) =      9.61934106

  Total CPU  time used in RESPONSE:   1 hour  10 minutes 40 seconds
  Total wall time used in RESPONSE:   1 hour  10 minutes 52 seconds


                   .-------------------------------------------.
                   | End of Dynamic Property Section (RESPONS) |
                   `-------------------------------------------'



 PLTORB knows S,P,D,F,G shells. The basis set contains orbital(s) with higher angular momentum,
 and the writing of MOLPLT file is thus abandoned.

  Total CPU  time used in DALTON:   1 hour  14 minutes  3 seconds
  Total wall time used in DALTON:   1 hour  14 minutes 15 seconds

 
     Date and time (Linux)  : Thu Sep  7 17:48:49 2023
     Host name              : sn-mem                                  
