

     ************************************************************************
     *************** Dalton - An Electronic Structure Program ***************
     ************************************************************************

    This is output from DALTON release Dalton2020.0 (2020)
         ( Web site: http://daltonprogram.org )

   ----------------------------------------------------------------------------

    NOTE:
     
    Dalton is an experimental code for the evaluation of molecular
    properties using (MC)SCF, DFT, CI, and CC wave functions.
    The authors accept no responsibility for the performance of
    the code or for the correctness of the results.
     
    The code (in whole or part) is provided under a licence and
    is not to be reproduced for further distribution without
    the written permission of the authors or their representatives.
     
    See the home page "http://daltonprogram.org" for further information.
     
    If results obtained with this code are published,
    the appropriate citations would be both of:
     
       K. Aidas, C. Angeli, K. L. Bak, V. Bakken, R. Bast,
       L. Boman, O. Christiansen, R. Cimiraglia, S. Coriani,
       P. Dahle, E. K. Dalskov, U. Ekstroem,
       T. Enevoldsen, J. J. Eriksen, P. Ettenhuber, B. Fernandez,
       L. Ferrighi, H. Fliegl, L. Frediani, K. Hald, A. Halkier,
       C. Haettig, H. Heiberg, T. Helgaker, A. C. Hennum,
       H. Hettema, E. Hjertenaes, S. Hoest, I.-M. Hoeyvik,
       M. F. Iozzi, B. Jansik, H. J. Aa. Jensen, D. Jonsson,
       P. Joergensen, J. Kauczor, S. Kirpekar,
       T. Kjaergaard, W. Klopper, S. Knecht, R. Kobayashi, H. Koch,
       J. Kongsted, A. Krapp, K. Kristensen, A. Ligabue,
       O. B. Lutnaes, J. I. Melo, K. V. Mikkelsen, R. H. Myhre,
       C. Neiss, C. B. Nielsen, P. Norman, J. Olsen,
       J. M. H. Olsen, A. Osted, M. J. Packer, F. Pawlowski,
       T. B. Pedersen, P. F. Provasi, S. Reine, Z. Rinkevicius,
       T. A. Ruden, K. Ruud, V. Rybkin, P. Salek, C. C. M. Samson,
       A. Sanchez de Meras, T. Saue, S. P. A. Sauer,
       B. Schimmelpfennig, K. Sneskov, A. H. Steindal,
       K. O. Sylvester-Hvid, P. R. Taylor, A. M. Teale,
       E. I. Tellgren, D. P. Tew, A. J. Thorvaldsen, L. Thoegersen,
       O. Vahtras, M. A. Watson, D. J. D. Wilson, M. Ziolkowski
       and H. Agren,
       "The Dalton quantum chemistry program system",
       WIREs Comput. Mol. Sci. 2014, 4:269–284 (doi: 10.1002/wcms.1172)
     
    and
     
       Dalton, a molecular electronic structure program,
       Release Dalton2020.0 (2020), see http://daltonprogram.org
   ----------------------------------------------------------------------------

    Authors in alphabetical order (Major contribution(s) in parenthesis):

  Kestutis Aidas,           Vilnius University,           Lithuania   (QM/MM)
  Celestino Angeli,         University of Ferrara,        Italy       (NEVPT2)
  Keld L. Bak,              UNI-C,                        Denmark     (AOSOPPA, non-adiabatic coupling, magnetic properties)
  Vebjoern Bakken,          University of Oslo,           Norway      (DALTON; geometry optimizer, symmetry detection)
  Radovan Bast,             UiT The Arctic U. of Norway,  Norway      (DALTON installation and execution frameworks)
  Pablo Baudin,             University of Valencia,       Spain       (Cholesky excitation energies)
  Linus Boman,              NTNU,                         Norway      (Cholesky decomposition and subsystems)
  Bruno N. Cabral Tenorio,  Technical Univ. of Denmark,   Denmark     (Lanczos-based CC methods)
  Ove Christiansen,         Aarhus University,            Denmark     (CC module)
  Renzo Cimiraglia,         University of Ferrara,        Italy       (NEVPT2)
  Sonia Coriani,            Technical Univ. of Denmark,   Denmark     (CC and RESPONS modules)
  Janusz Cukras,            University of Warsaw,         Poland      (MChD in RESPONS)
  Paal Dahle,               University of Oslo,           Norway      (Parallelization)
  Erik K. Dalskov,          UNI-C,                        Denmark     (SOPPA)
  Thomas Enevoldsen,        Univ. of Southern Denmark,    Denmark     (SOPPA)
  Janus J. Eriksen,         Aarhus University,            Denmark     (Polarizable embedding, TDA)
  Rasmus Faber,             Technical Univ. of Denmark,   Denmark     (Vib.avg. NMR w. SOPPA, parallel AO-SOPPA, CVS-CC and EOMCC)
  Tobias Fahleson,          KTH Stockholm,                Sweden      (Damped cubic response)
  Berta Fernandez,          U. of Santiago de Compostela, Spain       (Doublet spin, ESR in RESPONS)
  Lara Ferrighi,            Aarhus University,            Denmark     (PCM Cubic response)
  Heike Fliegl,             University of Oslo,           Norway      (CCSD(R12))
  Luca Frediani,            UiT The Arctic U. of Norway,  Norway      (PCM)
  Emmanuel Fromager,        Univ. Strasbourg,             France      (MC-srDFT)
  Bin Gao,                  UiT The Arctic U. of Norway,  Norway      (Gen1Int library)
  Andre S. P. Gomes,        CNRS/Universite de Lille,     France      (Frozen density embedding)
  Christof Haettig,         Ruhr-University Bochum,       Germany     (CC module)
  Kasper Hald,              Aarhus University,            Denmark     (CC module)
  Asger Halkier,            Aarhus University,            Denmark     (CC module)
  Frederik Beyer Hansen,    University of Copenhagen,     Denmark     (Parallel AO-SOPPA)
  Erik D. Hedegaard,        Univ. of Southern Denmark,    Denmark     (Polarizable embedding, QM/MM, and MC-srDFT)
  Hanne Heiberg,            University of Oslo,           Norway      (Geometry analysis, selected one-electron integrals)
  Trygve Helgaker,          University of Oslo,           Norway      (DALTON; ABACUS, ERI, DFT modules, London, and much more)
  Alf Christian Hennum,     University of Oslo,           Norway      (Parity violation)
  Hinne Hettema,            University of Auckland,       New Zealand (Quadratic response in RESPONS; SIRIUS supersymmetry)
  Eirik Hjertenaes,         NTNU,                         Norway      (Cholesky decomposition)
  Pi A. B. Haase,           University of Copenhagen,     Denmark     (Triplet AO-SOPPA)
  Maria Francesca Iozzi,    University of Oslo,           Norway      (RPA)
  Christoph Jacob           TU Braunschweig               Germany     (Frozen density embedding)
  Brano Jansik              Technical Univ. of Ostrava    Czech Rep.  (DFT cubic response)
  Hans Joergen Aa. Jensen,  Univ. of Southern Denmark,    Denmark     (DALTON; SIRIUS, RESPONS, ABACUS, MC-srDFT, and much more)
  Dan Jonsson,              UiT The Arctic U. of Norway,  Norway      (Cubic response in RESPONS module)
  Poul Joergensen,          Aarhus University,            Denmark     (RESPONS, ABACUS, and CC modules)
  Maciej Kaminski,          University of Warsaw,         Poland      (CPPh in RESPONS)
  Joanna Kauczor,           Linkoeping University,        Sweden      (Complex polarization propagator (CPP) module)
  Sheela Kirpekar,          Univ. of Southern Denmark,    Denmark     (Mass-velocity & Darwin integrals)
  Erik Kjellgren,           Univ. of Southern Denmark,    Denmark     (MC-srDFT)
  Wim Klopper,              KIT Karlsruhe,                Germany     (R12 code in CC, SIRIUS, and ABACUS modules)
  Stefan Knecht,            ETH Zurich,                   Switzerland (Parallel CI and MCSCF, MC-srDFT)
  Rika Kobayashi,           Australian National Univ.,    Australia   (DIIS in CC, London in MCSCF)
  Henrik Koch,              NTNU,                         Norway      (CC module, Cholesky decomposition)
  Jacob Kongsted,           Univ. of Southern Denmark,    Denmark     (Polarizable embedding, polarizable density embedding, QM/MM)
  Andrea Ligabue,           University of Modena,         Italy       (CTOCD, AOSOPPA)
  Nanna H. List             Univ. of Southern Denmark,    Denmark     (Polarizable embedding)
  Ola B. Lutnaes,           University of Oslo,           Norway      (DFT Hessian)
  Juan I. Melo,             University of Buenos Aires,   Argentina   (LRESC, Relativistic Effects on NMR Shieldings)
  Kurt V. Mikkelsen,        University of Copenhagen,     Denmark     (MC-SCRF and QM/MM)
  Rolf H. Myhre,            NTNU,                         Norway      (Subsystems and CC3)
  Christian Neiss,          Univ. Erlangen-Nuernberg,     Germany     (CCSD(R12))
  Christian B. Nielsen,     University of Copenhagen,     Denmark     (QM/MM)
  Patrick Norman,           KTH Stockholm,                Sweden      (Cubic response and complex frequency response in RESPONS)
  Jeppe Olsen,              Aarhus University,            Denmark     (SIRIUS CI/density modules)
  Jogvan Magnus H. Olsen,   Aarhus University,            Denmark     (Polarizable embedding and polarizable density embedding)
  Anders Osted,             Copenhagen University,        Denmark     (QM/MM)
  Martin J. Packer,         University of Sheffield,      UK          (SOPPA)
  Filip Pawlowski,          Kazimierz Wielki University,  Poland      (CC3)
  Morten N. Pedersen,       Univ. of Southern Denmark,    Denmark     (Polarizable embedding)
  Thomas B. Pedersen,       University of Oslo,           Norway      (Cholesky decomposition)
  Patricio F. Provasi,      University of Northeastern,   Argentina   (Analysis of coupling constants in localized orbitals)
  Peter Reinholdt,          Univ. of Southern Denmark,    Denmark     (Polarizable embedding and polarizable density embedding)
  Zilvinas Rinkevicius,     KTH Stockholm,                Sweden      (open-shell DFT, ESR)
  Elias Rudberg,            KTH Stockholm,                Sweden      (DFT grid and basis info)
  Torgeir A. Ruden,         University of Oslo,           Norway      (Numerical derivatives in ABACUS)
  Kenneth Ruud,             UiT The Arctic U. of Norway,  Norway      (DALTON; ABACUS magnetic properties and much more)
  Pawel Salek,              KTH Stockholm,                Sweden      (DALTON; DFT code)
  Claire C. M. Samson       University of Karlsruhe       Germany     (Boys localization, r12 integrals in ERI)
  Alfredo Sanchez de Meras, University of Valencia,       Spain       (CC module, Cholesky decomposition)
  Trond Saue,               Paul Sabatier University,     France      (direct Fock matrix construction)
  Stephan P. A. Sauer,      University of Copenhagen,     Denmark     (SOPPA(CCSD), SOPPA prop., AOSOPPA, vibrational g-factors)
  Bernd Schimmelpfennig,    Forschungszentrum Karlsruhe,  Germany     (AMFI module)
  Anna K. Schnack-Petersen, University of Copenhagen,     Denmark     (RPA(D) and HRPA(D) properties in AOSOPPA)
  Kristian Sneskov,         Aarhus University,            Denmark     (Polarizable embedding, QM/MM)
  Arnfinn H. Steindal,      UiT The Arctic U. of Norway,  Norway      (parallel QM/MM, polarizable embedding)
  Casper Steinmann,         Aalborg University,           Denmark     (QFIT, polarizable embedding)
  K. O. Sylvester-Hvid,     University of Copenhagen,     Denmark     (MC-SCRF)
  Peter R. Taylor,          VLSCI/Univ. of Melbourne,     Australia   (Symmetry handling ABACUS, integral transformation)
  Andrew M. Teale,          University of Nottingham,     England     (DFT-AC, DFT-D)
  David P. Tew,             University of Bristol,        England     (CCSD(R12))
  Julien Toulouse,          Sorbonne Univ.,               France      (MC-srDFT)
  Olav Vahtras,             KTH Stockholm,                Sweden      (Triplet response, spin-orbit, ESR, TDDFT, open-shell DFT)
  Lucas Visscher,           Vrije Universiteit Amsterdam, Netherlands (Frozen density embedding)
  David J. Wilson,          La Trobe University,          Australia   (DFT Hessian and DFT magnetizabilities)
  Hans Agren,               KTH Stockholm,                Sweden      (SIRIUS module, RESPONS, MC-SCRF solvation)
 --------------------------------------------------------------------------------

     Date and time (Linux)  : Tue Jul 23 16:17:53 2024
     Host name              : dn012                                   

 * Work memory size             :    64000000 =  488.28 megabytes.

 * Directories for basis set searches:
   1) /gpfs/projects/rjh/adrian/beta_paper_database/dalton/hf/PH3/dipole
   2) /gpfs/projects/rjh/adrian/dalton/build/basis


Compilation information
-----------------------

 Who compiled             | ahurtado
 Host                     | sn-mem
 System                   | Linux-3.10.0-1160.81.1.el7.x86_64
 CMake generator          | Unix Makefiles
 Processor                | x86_64
 64-bit integers          | OFF
 MPI                      | ON
 Fortran compiler         | /gpfs/software/intel/oneAPI/2021_4/mpi/2021.4.0/bi
                          | n/mpiifort
 Fortran compiler version | unknown
 C compiler               | /gpfs/software/intel/oneAPI/2021_4/mpi/2021.4.0/bi
                          | n/mpiicc
 C compiler version       | unknown
 C++ compiler             | /gpfs/software/intel/oneAPI/2021_4/mpi/2021.4.0/bi
                          | n/mpiicpc
 C++ compiler version     | unknown
 Static linking           | OFF
 Last Git revision        | 66052b3af5ea7225e31178bf9a8b031913c72190
 Git branch               | (HEAD detached at Dalton2020.0)
 Configuration time       | 2024-05-30 10:57:17.145493

 * MPI parallel run using 38 processes.


   Content of the .dal input file
 ----------------------------------

**DALTON INPUT
.RUN RESPONSE
.DIRECT
**WAVE FUNCTIONS
.HF
**PROPERTIES
**RESPONSE
*QUADRA
.DIPLEN
.FREQUENCIES
5
0.0 0.0164705 0.032941 0.0494115 0.065882
**END OF DALTON INPUT


   Content of the .mol file
 ----------------------------

BASIS
q-aug-cc-pCVTZ
blah
blah
Atomtype=2 Angstrom Charge=0 Nosymmmetry
Charge=15 Atoms=1
P_a 0.000000000000 0.000000000000 0.000000000000
Charge=1 Atoms=3
H_a 0.000000000000 -1.193199998467 -0.771699999462
H_b 1.033300002415 0.596600001880 -0.771699999462
H_c -1.033300002415 0.596600001880 -0.771699999462


       *******************************************************************
       *********** Output from DALTON general input processing ***********
       *******************************************************************

 --------------------------------------------------------------------------------
   Overall default print level:    0
   Print level for DALTON.STAT:    1

    Parallel calculation using MPI
    AO-direct calculation (in sections where implemented)
    HERMIT 1- and 2-electron integral sections will be executed
    "Old" integral transformation used (limited to max 255 basis functions)
    Wave function sections will be executed (SIRIUS module)
    Dynamic molecular response properties section will be executed (RESPONSE module)
 --------------------------------------------------------------------------------


   ****************************************************************************
   *************** Output of molecule and basis set information ***************
   ****************************************************************************


    The two title cards from your ".mol" input:
    ------------------------------------------------------------------------
 1: blah                                                                    
 2: blah                                                                    
    ------------------------------------------------------------------------

  Coordinates are entered in Angstrom and converted to atomic units.
          - Conversion factor : 1 bohr = 0.52917721 A

  Atomic type no.    1
  --------------------
  Nuclear charge:  15.00000
  Number of symmetry independent centers:    1
  Number of basis sets to read;    2
  Basis set file used for this atomic type with Z =  15 :
     "/gpfs/projects/rjh/adrian/dalton/build/basis/aug-cc-pCVTZ"

  Atomic type no.    2
  --------------------
  Nuclear charge:   1.00000
  Number of symmetry independent centers:    3
  Number of basis sets to read;    2
  Basis set file used for this atomic type with Z =   1 :
     "/gpfs/projects/rjh/adrian/dalton/build/basis/aug-cc-pCVTZ"


                         SYMGRP: Point group information
                         -------------------------------

@    Point group: C1 


                                 Isotopic Masses
                                 ---------------

                           P_a        30.973763
                           H_a         1.007825
                           H_b         1.007825
                           H_c         1.007825

                       Total mass:    33.997238 amu
                       Natural abundance:  99.955 %

 Center-of-mass coordinates (a.u.):    0.000000    0.000000   -0.129691
 Center-of-mass coordinates (Angs):    0.000000    0.000000   -0.068630


  Atoms and basis sets
  --------------------

  Number of atom types :    2
  Total number of atoms:    4

  Basis set used is "q-aug-cc-pCVTZ" from the basis set library.

  label    atoms   charge   prim   cont     basis
  ----------------------------------------------------------------------
  P_          1   15.0000   148   123      [21s15p8d6f|11s10p8d6f]                            
  H_          3    1.0000    52    50      [9s6p5d|7s6p5d]                                    
  ----------------------------------------------------------------------
  total:      4   18.0000   304   273
  ----------------------------------------------------------------------
  Spherical harmonic basis used.

  Threshold for neglecting AO integrals:  1.00D-12


  Cartesian Coordinates (a.u.)
  ----------------------------

  Total number of coordinates:   12
  P_a     :     1  x   0.0000000000    2  y   0.0000000000    3  z   0.0000000000
  H_a     :     4  x   0.0000000000    5  y  -2.2548212094    6  z  -1.4583016496
  H_b     :     7  x   1.9526540095    8  y   1.1274106097    9  z  -1.4583016496
  H_c     :    10  x  -1.9526540095   11  y   1.1274106097   12  z  -1.4583016496


   Interatomic separations (in Angstrom):
   --------------------------------------

            P_a         H_a         H_b         H_c   
            ------      ------      ------      ------
 P_a   :    0.000000
 H_a   :    1.421002    0.000000
 H_b   :    1.420972    2.066662    0.000000
 H_c   :    1.420972    2.066662    2.066600    0.000000


  Max    interatomic separation is    2.0667 Angstrom (    3.9054 Bohr)
  between atoms    3 and    2, "H_b   " and "H_a   ".

  Min HX interatomic separation is    1.4210 Angstrom (    2.6852 Bohr)


  Bond distances (Angstrom):
  --------------------------

                  atom 1     atom 2       distance
                  ------     ------       --------
  bond distance:  H_a        P_a          1.421002
  bond distance:  H_b        P_a          1.420972
  bond distance:  H_c        P_a          1.420972


  Bond angles (degrees):
  ----------------------

                  atom 1     atom 2     atom 3         angle
                  ------     ------     ------         -----
  bond angle:     H_a        P_a        H_b           93.303
  bond angle:     H_a        P_a        H_c           93.303
  bond angle:     H_b        P_a        H_c           93.301




 Principal moments of inertia (u*A**2) and principal axes
 --------------------------------------------------------

   IA       3.792542          0.000000    1.000000   -0.000000
   IB       3.792715          1.000000    0.000000    0.000000
   IC       4.304428          0.000000    0.000000    1.000000


 Rotational constants
 --------------------

               A                   B                   C

         133255.9944         133249.9191         117409.1033 MHz
            4.444942            4.444739            3.916346 cm-1


@  Nuclear repulsion energy :   17.526280706353 Hartree


                     .---------------------------------------.
                     | Starting in Integral Section (HERMIT) |
                     `---------------------------------------'



 ***************************************************************************************
 ****************** Output from **INTEGRALS input processing (HERMIT) ******************
 ***************************************************************************************


 - Using defaults, no **INTEGRALS input found

 Default print level:        1

 Calculation of one-electron Hamiltonian integrals.

 Center of mass  (bohr):      0.000000000000      0.000000000297     -0.129691081968
 Operator center (bohr):      0.000000000000      0.000000000000      0.000000000000
 Gauge origin    (bohr):      0.000000000000      0.000000000000      0.000000000000
 Dipole origin   (bohr):      0.000000000000      0.000000000000      0.000000000000


     ************************************************************************
     ************************** Output from HERINT **************************
     ************************************************************************



                      Nuclear contribution to dipole moments
                      --------------------------------------

                 au               Debye          C m (/(10**-30)

      x      0.00000000         0.00000000         0.00000000
      y      0.00000001         0.00000003         0.00000008
      z     -4.37490495       -11.11989850       -37.09198882


  Time used in GABGEN     is       0.73 seconds
  Total CPU  time used in HERMIT:   0.99 seconds
  Total wall time used in HERMIT:   1.00 seconds


                        .----------------------------------.
                        | End of Integral Section (HERMIT) |
                        `----------------------------------'



                   .--------------------------------------------.
                   | Starting in Wave Function Section (SIRIUS) |
                   `--------------------------------------------'



@ Primary orbitals are deleted during canonical orthonormalization
@   because of detected numerical linear dependence or too large coefficients.
@ Eigenvalue threshold for num. lin. dep. =  1.00D-06

@   5 MO components are deleted in symmetry    1
 Overlap eigenvalues of the deleted orbitals:
  4.98D-07  4.98D-07  4.37D-07  1.57D-07  1.57D-07

 Max MO coeff. of last deleted MO & limit:  1.07D+03  1.00D+03

WARNING: Orbitals have been deleted because of numerical
   linear dependence although not requested in input.

 *** Output from Huckel module :

     Using EWMO model:          T
     Using EHT  model:          F
     Number of Huckel orbitals each symmetry:   17

 EWMO - Energy Weighted Maximum Overlap - is a Huckel type method,
        which normally is better than Extended Huckel Theory.
 Reference: Linderberg and Ohrn, Propagators in Quantum Chemistry (Wiley, 1973)

 Huckel EWMO eigenvalues for symmetry :  1
          -79.989138      -7.539621      -5.419453      -5.419453      -5.419331
           -1.162139      -0.617917      -0.617908      -0.435032      -0.171097
           -0.171096      -0.123482      -0.055556      -0.055556      -0.055288
           -0.028356      -0.028355

 **********************************************************************
 *SIRIUS* a direct, restricted step, second order MCSCF program       *
 **********************************************************************

 
     Date and time (Linux)  : Tue Jul 23 16:17:55 2024
     Host name              : dn012                                   

 Title lines from ".mol" input file:
     blah                                                                    
     blah                                                                    

 Print level on unit LUPRI =   2 is   0
 Print level on unit LUW4  =   2 is   5

@    Restricted, closed shell Hartree-Fock calculation.

@    Time-dependent Hartree-Fock calculation (random phase approximation).
 Fock matrices are calculated directly and in parallel without use of integrals on disk.

 Initial molecular orbitals are obtained according to
 ".MOSTART EWMO  " input option

     Wave function specification
     ============================
@    Wave function type        --- HF ---
@    Number of closed shell electrons          18
@    Number of electrons in active shells       0
@    Total charge of the molecule               0

@    Spin multiplicity and 2 M_S                1         0
@    Total number of symmetries                 1 (point group: C1 )
@    Reference state symmetry                   1 (irrep name : A  )

     Orbital specifications
     ======================
@    Abelian symmetry species          All |    1
@                                          |  A  
                                       --- |  ---
@    Occupied SCF orbitals               9 |    9
@    Secondary orbitals                259 |  259
@    Total number of orbitals          268 |  268
@    Number of basis functions         273 |  273

     Optimization information
     ========================
@    Number of configurations                 1
@    Number of orbital rotations           2331
     ------------------------------------------
@    Total number of variables             2332

     Maximum number of Fock   iterations      0
     Maximum number of DIIS   iterations     60
     Maximum number of QC-SCF iterations     60
     Threshold for SCF convergence     1.00D-05

    INFORMATION: Switched to "new" integral transformation (from 1988 ;-) )
    because more than 255 basis functions.


 ***********************************************
 ***** DIIS acceleration of SCF iterations *****
 ***********************************************

 C1-DIIS algorithm; max error vectors =    8

 Iter      Total energy        Error norm    Delta(E)  DIIS dim.
 -----------------------------------------------------------------------------
   1  Screening settings (-IFTHRS, JTDIIS, DIFDEN, times)   -8    1    T  3.12D+00  3.14D+00
@  1    -342.354428251        1.27401D+00   -3.42D+02    1
      Virial theorem: -V/T =      2.002578
@    MULPOP   P_a     0.69; H_a    -0.23; H_b    -0.23; H_c    -0.23; 
   1  Level shift: doubly occupied orbital energies shifted by -2.00D-01
 -----------------------------------------------------------------------------
   2  Screening settings (-IFTHRS, JTDIIS, DIFDEN, times)   -8    2    T  3.02D+00  3.09D+00
@  2    -342.481757600        3.26535D-01   -1.27D-01    2
      Virial theorem: -V/T =      1.998959
@    MULPOP   P_a     0.29; H_a    -0.10; H_b    -0.09; H_c    -0.10; 
   2  Level shift: doubly occupied orbital energies shifted by -1.00D-01
 -----------------------------------------------------------------------------
   3  Screening settings (-IFTHRS, JTDIIS, DIFDEN, times)  -12    3    F  3.08D+00  3.10D+00
@  3    -342.488708871        9.63340D-02   -6.95D-03    3
      Virial theorem: -V/T =      2.000300
@    MULPOP   P_a     0.18; H_a    -0.06; H_b    -0.06; H_c    -0.06; 
   3  Level shift: doubly occupied orbital energies shifted by -5.00D-02
 -----------------------------------------------------------------------------
   4  Screening settings (-IFTHRS, JTDIIS, DIFDEN, times)  -12    4    T  3.19D+00  3.21D+00
@  4    -342.489943284        2.98967D-02   -1.23D-03    4
      Virial theorem: -V/T =      2.000117
@    MULPOP   P_a     0.13; H_a    -0.04; H_b    -0.04; H_c    -0.04; 
   4  Level shift: doubly occupied orbital energies shifted by -2.50D-02
 -----------------------------------------------------------------------------
   5  Screening settings (-IFTHRS, JTDIIS, DIFDEN, times)  -12    5    T  3.05D+00  3.07D+00
@  5    -342.490126487        7.47716D-03   -1.83D-04    5
      Virial theorem: -V/T =      2.000196
@    MULPOP   P_a     0.11; H_a    -0.04; H_b    -0.04; H_c    -0.04; 
   5  Level shift: doubly occupied orbital energies shifted by -1.25D-02
 -----------------------------------------------------------------------------
   6  Screening settings (-IFTHRS, JTDIIS, DIFDEN, times)  -12    6    T  3.13D+00  3.15D+00
@  6    -342.490142834        1.24829D-03   -1.63D-05    6
      Virial theorem: -V/T =      2.000198
@    MULPOP   P_a     0.11; H_a    -0.04; H_b    -0.04; H_c    -0.04; 
 -----------------------------------------------------------------------------
   7  Screening settings (-IFTHRS, JTDIIS, DIFDEN, times)  -12    7    T  3.11D+00  3.13D+00
@  7    -342.490143351        2.76683D-04   -5.17D-07    7
      Virial theorem: -V/T =      2.000201
@    MULPOP   P_a     0.11; H_a    -0.04; H_b    -0.04; H_c    -0.04; 
 -----------------------------------------------------------------------------
   8  Screening settings (-IFTHRS, JTDIIS, DIFDEN, times)  -12    8    T  3.09D+00  3.11D+00
@  8    -342.490143373        5.10485D-05   -2.19D-08    8
      Virial theorem: -V/T =      2.000201
@    MULPOP   P_a     0.11; H_a    -0.04; H_b    -0.04; H_c    -0.04; 
 -----------------------------------------------------------------------------
   9  Screening settings (-IFTHRS, JTDIIS, DIFDEN, times)  -12    9    T  3.12D+00  3.14D+00
@  9    -342.490143373        1.03456D-05   -4.73D-10    8
      Virial theorem: -V/T =      2.000201
@    MULPOP   P_a     0.11; H_a    -0.04; H_b    -0.04; H_c    -0.04; 
 -----------------------------------------------------------------------------
  10  Screening settings (-IFTHRS, JTDIIS, DIFDEN, times)  -12   10    T  3.16D+00  3.18D+00
@ 10    -342.490143373        2.48888D-06   -1.69D-11    8

@ *** DIIS converged in  10 iterations !
@     Converged SCF energy, gradient:   -342.490143373374    2.49D-06
    - total time used in SIRFCK :              0.00 seconds


 *** SCF orbital energy analysis ***

 Only the 20 lowest virtual orbital energies printed in each symmetry.

 Number of electrons :   18
 Orbital occupations :    9

 Sym       Hartree-Fock orbital energies

1 A     -79.94576170    -7.48802219    -5.38144904    -5.38144893    -5.38076257
         -0.85357411    -0.52031770    -0.52031667    -0.38881027     0.00047833
          0.00075938     0.00075938     0.00176623     0.00256898     0.00270215
          0.00270215     0.00440763     0.00440764     0.00457460     0.00457460
          0.00467138     0.00589485     0.00670086     0.00671100     0.00671100
          0.00773423     0.01121615     0.01121617     0.01142617

    E(LUMO) :     0.00047833 au (symmetry 1)
  - E(HOMO) :    -0.38881027 au (symmetry 1)
  ------------------------------------------
    gap     :     0.38928860 au

 --- Writing SIRIFC interface file

 CPU and wall time for SCF :      31.747      32.004


                       .-----------------------------------.
                       | --- Final results from SIRIUS --- |
                       `-----------------------------------'


@    Spin multiplicity:           1
@    Spatial symmetry:            1 ( irrep  A   in C1  )
@    Total charge of molecule:    0

@    Final HF energy:            -342.490143373374                 
@    Nuclear repulsion:            17.526280706353
@    Electronic energy:          -360.016424079727

@    Final gradient norm:           0.000002488878

 
     Date and time (Linux)  : Tue Jul 23 16:18:27 2024
     Host name              : dn012                                   

File label for MO orbitals:  23Jul24   FOCKDIIS

 (Only coefficients > 0.0100 are printed.)

 Molecular orbitals for symmetry species 1  (A  )
 ------------------------------------------------

    Orbital         1        2        3        4        5        6        7
   1 P_a :1s    -0.9999  -0.0002   0.0000  -0.0000  -0.0003   0.0004  -0.0000
   2 P_a :1s    -0.0005   0.9967  -0.0000  -0.0000  -0.0069  -0.0076  -0.0000
   3 P_a :1s    -0.0024  -0.0073   0.0000   0.0000  -0.0013   0.8001   0.0000
   5 P_a :1s     0.0036   0.0201  -0.0000  -0.0000  -0.0128  -0.1448   0.0000
   8 P_a :1s     0.0014   0.0032  -0.0000  -0.0000   0.0029  -0.1557  -0.0000
   9 P_a :1s     0.0005  -0.0029  -0.0000   0.0000   0.0177  -0.1566  -0.0000
  10 P_a :1s    -0.0001  -0.0000   0.0000  -0.0000  -0.0016   0.0181   0.0000
  11 P_a :1s    -0.0000   0.0002   0.0000  -0.0000  -0.0012   0.0117  -0.0000
  12 P_a :2px   -0.0000  -0.0000  -0.9971  -0.0000  -0.0000  -0.0000  -0.0000
  13 P_a :2py    0.0000  -0.0000  -0.0000   0.9971  -0.0001  -0.0000   0.0220
  14 P_a :2pz    0.0007  -0.0029  -0.0000  -0.0001  -0.9990   0.0177  -0.0000
  16 P_a :2py   -0.0000  -0.0000  -0.0000  -0.0086   0.0000   0.0000  -0.6199
  17 P_a :2pz    0.0007   0.0009  -0.0000   0.0000   0.0070  -0.1140   0.0000
  22 P_a :2py    0.0000   0.0000   0.0000   0.0050  -0.0000  -0.0000   0.0255
  23 P_a :2pz   -0.0014  -0.0056   0.0000   0.0000  -0.0019   0.0899  -0.0000
  31 P_a :2py   -0.0000  -0.0000   0.0000  -0.0025   0.0000  -0.0000   0.0707
  32 P_a :2pz   -0.0001   0.0005  -0.0000   0.0000   0.0008   0.0420  -0.0000
  34 P_a :2py    0.0000  -0.0000   0.0000   0.0017  -0.0000  -0.0000   0.0229
  35 P_a :2pz    0.0000   0.0006   0.0000  -0.0000  -0.0015   0.0187  -0.0000
  53 P_a :3d1-   0.0000   0.0000   0.0000  -0.0008   0.0000  -0.0000   0.0557
  56 P_a :3d2+   0.0000  -0.0000  -0.0000   0.0001  -0.0000   0.0000  -0.0429
  58 P_a :3d1-   0.0000   0.0000  -0.0000   0.0035  -0.0000  -0.0000   0.0704
  61 P_a :3d2+   0.0000  -0.0000   0.0000  -0.0007  -0.0000   0.0000  -0.0520
  63 P_a :3d1-  -0.0000  -0.0000  -0.0000  -0.0016   0.0000   0.0000   0.0339
  68 P_a :3d1-   0.0000   0.0000  -0.0000   0.0007  -0.0000  -0.0000  -0.0256
  71 P_a :3d2+   0.0000   0.0000   0.0000   0.0015  -0.0000  -0.0000   0.0126
  73 P_a :3d1-   0.0000   0.0000   0.0000   0.0027  -0.0000  -0.0000  -0.0426
  74 P_a :3d0    0.0001  -0.0004  -0.0000   0.0000   0.0015  -0.0190  -0.0000
  78 P_a :3d1-   0.0000   0.0000   0.0000   0.0002  -0.0000  -0.0000  -0.0131
  79 P_a :3d0    0.0000  -0.0002  -0.0000   0.0000   0.0014  -0.0133  -0.0000
  94 P_a :4f2+  -0.0000   0.0000  -0.0000  -0.0000   0.0000  -0.0000   0.0183
 124 H_a :1s    -0.0000   0.0010   0.0000  -0.0018   0.0012   0.3256   0.6560
 125 H_a :1s     0.0001   0.0001   0.0000  -0.0031   0.0009  -0.0399  -0.0972
 126 H_a :1s    -0.0010  -0.0056   0.0000   0.0024   0.0011  -0.0543  -0.1735
 127 H_a :1s    -0.0004   0.0004   0.0000  -0.0406  -0.0059   0.0718   0.4890
 128 H_a :1s     0.0000   0.0001  -0.0000   0.0030  -0.0000  -0.0001  -0.0326
 135 H_a :2py    0.0001   0.0002   0.0000  -0.0012   0.0011   0.0134  -0.0010
 138 H_a :2py   -0.0002  -0.0020  -0.0000  -0.0009   0.0019   0.0029  -0.0114
 141 H_a :2py   -0.0002  -0.0015  -0.0000  -0.0123   0.0043   0.0036   0.0922
 144 H_a :2py   -0.0001   0.0003   0.0000   0.0008  -0.0029   0.0350  -0.0096
 145 H_a :2pz   -0.0000  -0.0001   0.0000   0.0047   0.0003  -0.0040  -0.0701
 165 H_a :3d1-  -0.0000  -0.0000   0.0000  -0.0009  -0.0000   0.0015   0.0100
 174 H_b :1s    -0.0000   0.0010  -0.0016   0.0009   0.0012   0.3257  -0.3280
 175 H_b :1s     0.0001   0.0001  -0.0027   0.0015   0.0009  -0.0399   0.0486
 176 H_b :1s    -0.0010  -0.0056   0.0020  -0.0012   0.0011  -0.0543   0.0868
 177 H_b :1s    -0.0004   0.0004  -0.0352   0.0203  -0.0059   0.0718  -0.2445
 178 H_b :1s     0.0000   0.0001   0.0026  -0.0015  -0.0000  -0.0001   0.0163
 184 H_b :2px   -0.0001  -0.0002   0.0007  -0.0009  -0.0009  -0.0116   0.0028
 187 H_b :2px    0.0002   0.0017   0.0006  -0.0006  -0.0016  -0.0025  -0.0133
 188 H_b :2py    0.0001   0.0010   0.0006   0.0000  -0.0009  -0.0015   0.0117
 190 H_b :2px    0.0001   0.0013   0.0096  -0.0047  -0.0037  -0.0031   0.0259
 191 H_b :2py    0.0001   0.0007   0.0047  -0.0042  -0.0021  -0.0018   0.0473
 193 H_b :2px    0.0001  -0.0002  -0.0002   0.0009   0.0025  -0.0304  -0.0008
 194 H_b :2py    0.0001  -0.0001  -0.0009  -0.0009   0.0014  -0.0175  -0.0083
 195 H_b :2pz   -0.0000  -0.0001   0.0041  -0.0024   0.0003  -0.0040   0.0351
 215 H_b :3d1-   0.0000   0.0000   0.0001  -0.0007   0.0000  -0.0007   0.0108
 224 H_c :1s    -0.0000   0.0010   0.0016   0.0009   0.0012   0.3257  -0.3281
 225 H_c :1s     0.0001   0.0001   0.0027   0.0015   0.0009  -0.0399   0.0486
 226 H_c :1s    -0.0010  -0.0056  -0.0020  -0.0012   0.0011  -0.0543   0.0868
 227 H_c :1s    -0.0004   0.0004   0.0352   0.0203  -0.0059   0.0718  -0.2445
 228 H_c :1s     0.0000   0.0001  -0.0026  -0.0015  -0.0000  -0.0001   0.0163
 234 H_c :2px    0.0001   0.0002   0.0007   0.0009   0.0009   0.0116  -0.0028
 237 H_c :2px   -0.0002  -0.0017   0.0006   0.0006   0.0016   0.0025   0.0133
 238 H_c :2py    0.0001   0.0010  -0.0006   0.0000  -0.0009  -0.0015   0.0117
 240 H_c :2px   -0.0001  -0.0013   0.0096   0.0047   0.0037   0.0031  -0.0259
 241 H_c :2py    0.0001   0.0007  -0.0047  -0.0042  -0.0021  -0.0018   0.0473
 243 H_c :2px   -0.0001   0.0002  -0.0002  -0.0009  -0.0025   0.0304   0.0008
 244 H_c :2py    0.0001  -0.0001   0.0009  -0.0009   0.0014  -0.0175  -0.0083
 245 H_c :2pz   -0.0000  -0.0001  -0.0041  -0.0024   0.0003  -0.0040   0.0351
 265 H_c :3d1-   0.0000   0.0000  -0.0001  -0.0007   0.0000  -0.0007   0.0108

    Orbital         8        9       10       11       12       13       14
   3 P_a :1s    -0.0000  -0.4137   0.0068   0.0000  -0.0000  -0.0022  -0.0319
   5 P_a :1s    -0.0000  -0.1811   0.0294  -0.0000   0.0000   0.0850   0.0962
   8 P_a :1s    -0.0000  -0.0582   0.1273  -0.0000   0.0000   0.1969   0.4298
   9 P_a :1s    -0.0000   0.0758   0.5657  -0.0000   0.0000   0.3444   1.9892
  10 P_a :1s     0.0000  -0.0047   0.0459   0.0000  -0.0000  -0.0267   0.1784
  11 P_a :1s     0.0000  -0.0045  -1.2857   0.0000  -0.0000   1.3749  -4.9715
  12 P_a :2px   -0.0220  -0.0000   0.0000   0.0004   0.0000   0.0000  -0.0000
  14 P_a :2pz    0.0000   0.0208  -0.0000  -0.0000   0.0000  -0.0008  -0.0004
  15 P_a :2px    0.6199  -0.0000   0.0000   0.0012  -0.0000   0.0000   0.0000
  17 P_a :2pz    0.0000  -0.7434  -0.0036   0.0000   0.0000  -0.0062   0.0070
  20 P_a :2pz   -0.0000  -0.0146  -0.0000   0.0000  -0.0000   0.0006   0.0003
  21 P_a :2px   -0.0255  -0.0000   0.0000  -0.0010  -0.0000   0.0000   0.0000
  23 P_a :2pz    0.0000  -0.0036  -0.0170   0.0000  -0.0000  -0.0179  -0.0606
  30 P_a :2px   -0.0707  -0.0000  -0.0000  -0.0604   0.0000  -0.0000   0.0000
  31 P_a :2py   -0.0000   0.0000  -0.0000  -0.0000   0.0604   0.0000   0.0000
  32 P_a :2pz   -0.0000  -0.0217  -0.0292   0.0000  -0.0000   0.1927  -0.0992
  33 P_a :2px   -0.0229  -0.0000   0.0000  -0.3427  -0.0000   0.0000  -0.0000
  34 P_a :2py   -0.0000   0.0000  -0.0000  -0.0000   0.3427   0.0000   0.0000
  35 P_a :2pz   -0.0000   0.0019  -0.0155  -0.0000  -0.0000   0.5843  -0.0475
  36 P_a :2px   -0.0063  -0.0000   0.0000  -0.9586  -0.0000   0.0000   0.0000
  37 P_a :2py   -0.0000   0.0000   0.0000  -0.0000   0.9586   0.0000   0.0000
  38 P_a :2pz   -0.0000   0.0052   0.2190  -0.0000  -0.0000   1.8555   0.7345
  39 P_a :2px   -0.0015  -0.0000   0.0000  -1.2413  -0.0000   0.0000   0.0000
  40 P_a :2py   -0.0000  -0.0000  -0.0000  -0.0000   1.2413   0.0000   0.0001
  41 P_a :2pz    0.0000   0.0007   0.1615  -0.0000  -0.0000   2.2640   0.3965
  52 P_a :3d2-   0.0429   0.0000  -0.0000  -0.0000   0.0000   0.0000   0.0000
  55 P_a :3d1+  -0.0557  -0.0000   0.0000   0.0000  -0.0000   0.0000  -0.0000
  57 P_a :3d2-   0.0520   0.0000   0.0000   0.0005   0.0000   0.0000   0.0000
  60 P_a :3d1+  -0.0704  -0.0000  -0.0000   0.0002   0.0000  -0.0000  -0.0000
  64 P_a :3d0    0.0000   0.0215   0.0015   0.0000  -0.0000  -0.0128   0.0051
  65 P_a :3d1+  -0.0339   0.0000  -0.0000   0.0052   0.0000  -0.0000  -0.0000
  67 P_a :3d2-  -0.0126  -0.0000  -0.0000  -0.0268  -0.0000   0.0000  -0.0000
  69 P_a :3d0    0.0000  -0.0257   0.0023   0.0000  -0.0000  -0.1039   0.0078
  70 P_a :3d1+   0.0256  -0.0000   0.0000   0.0062  -0.0000   0.0000   0.0000
  71 P_a :3d2+  -0.0000  -0.0000   0.0000  -0.0000   0.0268  -0.0000   0.0000
  73 P_a :3d1-   0.0000  -0.0000   0.0000  -0.0000   0.1612  -0.0000   0.0000
  74 P_a :3d0   -0.0000  -0.0011   0.1766  -0.0000   0.0000  -0.1921   0.6396
  75 P_a :3d1+   0.0426  -0.0000   0.0000  -0.1612  -0.0000   0.0000  -0.0000
  77 P_a :3d2-   0.0006  -0.0000  -0.0000  -0.0911   0.0000  -0.0000   0.0000
  78 P_a :3d1-  -0.0000  -0.0000   0.0000  -0.0000   0.3754  -0.0000   0.0000
  79 P_a :3d0    0.0000   0.0070   0.2232  -0.0000   0.0000   0.2660   0.7505
  80 P_a :3d1+   0.0131  -0.0000   0.0000  -0.3754   0.0000   0.0000   0.0000
  81 P_a :3d2+   0.0000   0.0000   0.0000   0.0000   0.0912  -0.0000  -0.0000
  90 P_a :4f2-  -0.0183  -0.0000   0.0000  -0.0000  -0.0000  -0.0000  -0.0000
 113 P_a :4f0   -0.0000   0.0049  -0.0055  -0.0000  -0.0000   0.0184  -0.0204
 117 P_a :4f3-   0.0000  -0.0020  -0.0269   0.0000  -0.0000  -0.0009  -0.0972
 118 P_a :4f2-   0.0011   0.0000   0.0000  -0.0138  -0.0000   0.0000  -0.0000
 119 P_a :4f1-   0.0000   0.0000  -0.0000   0.0000  -0.0377   0.0000  -0.0000
 120 P_a :4f0    0.0000  -0.0001  -0.0347  -0.0000  -0.0000   0.0247  -0.1255
 121 P_a :4f1+  -0.0043   0.0000  -0.0000   0.0377   0.0000  -0.0000   0.0000
 122 P_a :4f2+  -0.0000  -0.0000   0.0000  -0.0000   0.0138   0.0000   0.0000
 124 H_a :1s    -0.0000   0.2326   0.0003  -0.0000  -0.0006   0.0009  -0.0004
 125 H_a :1s     0.0000  -0.0156  -0.0003   0.0000   0.0006  -0.0010  -0.0007
 126 H_a :1s     0.0000  -0.0110  -0.0190   0.0000  -0.0045  -0.0300  -0.0649
 127 H_a :1s    -0.0000  -0.0166  -0.1308   0.0000  -0.0069  -0.0909  -0.4608
 128 H_a :1s     0.0000  -0.0007   0.1117  -0.0000  -0.0546   0.0008   0.4193
 129 H_a :1s    -0.0000   0.0007   0.4380  -0.0000  -0.5578  -0.3819   1.7854
 130 H_a :1s    -0.0000  -0.0000  -0.4455  -0.0000  22.9407   0.0583  -0.4442
 137 H_a :2px   -0.0193  -0.0000  -0.0000   0.0042   0.0000   0.0000  -0.0000
 138 H_a :2py    0.0000  -0.0027  -0.0048   0.0000  -0.0063  -0.0093  -0.0201
 139 H_a :2pz    0.0000   0.0133  -0.0019   0.0000  -0.0046  -0.0154  -0.0084
 140 H_a :2px   -0.0323  -0.0000  -0.0000  -0.0004  -0.0000   0.0000  -0.0000
 141 H_a :2py   -0.0000   0.0231  -0.0095   0.0000  -0.0690   0.0119  -0.0426
 142 H_a :2pz    0.0000  -0.0041  -0.0105  -0.0000   0.0016  -0.1270  -0.0395
 143 H_a :2px    0.0079  -0.0000   0.0000   0.1054   0.0000  -0.0000  -0.0000
 144 H_a :2py   -0.0000  -0.0125  -0.4550  -0.0000  -0.1947  -0.0325  -1.6820
 145 H_a :2pz   -0.0000  -0.0010  -0.0036  -0.0000   0.7094  -0.3013  -0.0269
 146 H_a :2px    0.0009  -0.0000  -0.0000   0.5394   0.0000  -0.0003  -0.0000
 147 H_a :2py   -0.0000   0.0007  -0.0065  -0.0000  -0.4268  -0.7479  -0.3039
 148 H_a :2pz    0.0000  -0.0012  -0.0542   0.0000   0.1524  -0.9423  -0.1968
 165 H_a :3d1-  -0.0000  -0.0004  -0.0090   0.0000  -0.0301  -0.0215  -0.0342
 166 H_a :3d0    0.0000   0.0016  -0.0336   0.0000   0.0143   0.0306  -0.1222
 167 H_a :3d1+  -0.0110   0.0000  -0.0000   0.0363   0.0000  -0.0000   0.0000
 168 H_a :3d2+  -0.0000  -0.0007  -0.0013  -0.0000   0.0105   0.0006  -0.0034
 169 H_a :3d2-   0.0010   0.0000  -0.0000   0.2101  -0.0000  -0.0000  -0.0000
 170 H_a :3d1-   0.0000  -0.0026  -0.0708   0.0000  -0.1352  -0.2299  -0.2335
 171 H_a :3d0   -0.0000  -0.0019  -0.0620  -0.0000   0.1091  -0.1269  -0.1972
 172 H_a :3d1+  -0.0037  -0.0000   0.0000   0.1210  -0.0000  -0.0000  -0.0000
 173 H_a :3d2+  -0.0000  -0.0006   0.0131  -0.0000   0.1467   0.0198   0.0597
 174 H_b :1s     0.5682   0.2326   0.0003  -0.0005   0.0003   0.0009  -0.0004
 175 H_b :1s    -0.0842  -0.0156  -0.0003   0.0006  -0.0003  -0.0010  -0.0007
 176 H_b :1s    -0.1503  -0.0110  -0.0190  -0.0039   0.0023  -0.0300  -0.0649
 177 H_b :1s     0.4235  -0.0167  -0.1308  -0.0059   0.0034  -0.0908  -0.4608
 178 H_b :1s    -0.0283  -0.0007   0.1117  -0.0473   0.0273   0.0008   0.4193
 179 H_b :1s     0.0056   0.0007   0.4380  -0.4831   0.2789  -0.3819   1.7854
 180 H_b :1s     0.0031  -0.0000  -0.4454  19.8681 -11.4703   0.0579  -0.4449
 187 H_b :2px    0.0037   0.0024   0.0041   0.0058  -0.0009   0.0081   0.0174
 188 H_b :2py    0.0133   0.0014   0.0024   0.0009  -0.0048   0.0046   0.0100
 189 H_b :2pz   -0.0065   0.0133  -0.0019  -0.0040   0.0023  -0.0154  -0.0084
 190 H_b :2px   -0.0772  -0.0200   0.0082   0.0516  -0.0301  -0.0103   0.0368
 191 H_b :2py   -0.0259  -0.0116   0.0047   0.0301  -0.0169  -0.0060   0.0213
 192 H_b :2pz    0.0008  -0.0041  -0.0105   0.0014  -0.0008  -0.1270  -0.0395
 193 H_b :2px    0.0092   0.0109   0.3941   0.1723  -0.0387   0.0282   1.4568
 194 H_b :2py    0.0008   0.0063   0.2276   0.0387  -0.1277   0.0162   0.8410
 195 H_b :2pz   -0.0607  -0.0010  -0.0036   0.6144  -0.3547  -0.3013  -0.0270
 196 H_b :2px    0.0011  -0.0006   0.0057   0.4547   0.0486   0.6479   0.2632
 197 H_b :2py    0.0001  -0.0004   0.0033  -0.0483  -0.5110   0.3737   0.1520
 198 H_b :2pz    0.0020  -0.0012  -0.0542   0.1320  -0.0761  -0.9424  -0.1968
 215 H_b :3d1-   0.0004   0.0002   0.0045  -0.0027  -0.0348   0.0108   0.0171
 216 H_b :3d0   -0.0051   0.0016  -0.0336   0.0123  -0.0071   0.0306  -0.1222
 217 H_b :3d1+  -0.0103   0.0004   0.0078   0.0316   0.0027   0.0187   0.0297
 219 H_b :3d2-  -0.0008   0.0005  -0.0113  -0.0575   0.1545  -0.0171  -0.0517
 220 H_b :3d1-   0.0006   0.0013   0.0354   0.0061  -0.1245   0.1150   0.1167
 221 H_b :3d0   -0.0045  -0.0019  -0.0620   0.0945  -0.0546  -0.1269  -0.1972
 222 H_b :3d1+  -0.0026   0.0023   0.0613   0.1316  -0.0061   0.1991   0.2022
 223 H_b :3d2+  -0.0010   0.0003  -0.0065  -0.1545  -0.1209  -0.0099  -0.0298
 224 H_c :1s    -0.5681   0.2326   0.0003   0.0005   0.0003   0.0009  -0.0004
 225 H_c :1s     0.0842  -0.0156  -0.0003  -0.0006  -0.0003  -0.0010  -0.0007
 226 H_c :1s     0.1503  -0.0110  -0.0190   0.0039   0.0023  -0.0300  -0.0649
 227 H_c :1s    -0.4235  -0.0167  -0.1308   0.0059   0.0034  -0.0908  -0.4608
 228 H_c :1s     0.0283  -0.0007   0.1117   0.0473   0.0273   0.0008   0.4193
 229 H_c :1s    -0.0056   0.0007   0.4380   0.4831   0.2789  -0.3819   1.7854
 230 H_c :1s    -0.0031  -0.0000  -0.4454 -19.8680 -11.4705   0.0579  -0.4448
 237 H_c :2px    0.0037  -0.0024  -0.0041   0.0058   0.0009  -0.0081  -0.0174
 238 H_c :2py   -0.0133   0.0014   0.0024  -0.0009  -0.0048   0.0046   0.0100
 239 H_c :2pz    0.0065   0.0133  -0.0019   0.0040   0.0023  -0.0154  -0.0084
 240 H_c :2px   -0.0772   0.0200  -0.0082   0.0516   0.0301   0.0103  -0.0368
 241 H_c :2py    0.0259  -0.0116   0.0047  -0.0301  -0.0169  -0.0060   0.0213
 242 H_c :2pz   -0.0008  -0.0041  -0.0105  -0.0014  -0.0008  -0.1270  -0.0395
 243 H_c :2px    0.0092  -0.0109  -0.3941   0.1724   0.0387  -0.0282  -1.4568
 244 H_c :2py   -0.0008   0.0063   0.2275  -0.0387  -0.1277   0.0163   0.8410
 245 H_c :2pz    0.0607  -0.0010  -0.0036  -0.6143  -0.3547  -0.3013  -0.0270
 246 H_c :2px    0.0011   0.0006  -0.0057   0.4547  -0.0486  -0.6476  -0.2632
 247 H_c :2py   -0.0001  -0.0003   0.0033   0.0483  -0.5110   0.3742   0.1519
 248 H_c :2pz   -0.0020  -0.0012  -0.0542  -0.1320  -0.0762  -0.9423  -0.1969
 265 H_c :3d1-  -0.0004   0.0002   0.0045   0.0027  -0.0348   0.0108   0.0171
 266 H_c :3d0    0.0051   0.0016  -0.0336  -0.0123  -0.0071   0.0306  -0.1222
 267 H_c :3d1+  -0.0103  -0.0004  -0.0078   0.0316  -0.0027  -0.0187  -0.0297
 269 H_c :3d2-  -0.0008  -0.0005   0.0113  -0.0575  -0.1545   0.0172   0.0516
 270 H_c :3d1-  -0.0006   0.0013   0.0354  -0.0061  -0.1245   0.1150   0.1167
 271 H_c :3d0    0.0045  -0.0019  -0.0620  -0.0945  -0.0546  -0.1269  -0.1972
 272 H_c :3d1+  -0.0026  -0.0023  -0.0614   0.1316   0.0061  -0.1991  -0.2022
 273 H_c :3d2+   0.0010   0.0003  -0.0066   0.1545  -0.1209  -0.0099  -0.0298

    Orbital        15       16       17       18       19
  21 P_a :2px    0.0000   0.0030  -0.0001   0.0000   0.0372
  30 P_a :2px    0.0000   0.1602   0.0929   0.0000   0.0968
  31 P_a :2py    0.1601  -0.0000   0.0000  -0.0929   0.0000
  33 P_a :2px    0.0000   0.9208   0.4176   0.0000   0.4103
  34 P_a :2py    0.9208  -0.0000   0.0000  -0.4177   0.0001
  36 P_a :2px    0.0000   2.6575  -0.5069  -0.0000  -2.0600
  37 P_a :2py    2.6576  -0.0000  -0.0001   0.5071  -0.0003
  39 P_a :2px    0.0000   3.8405  -0.0166   0.0000  -0.9318
  40 P_a :2py    3.8406  -0.0000  -0.0001   0.0167  -0.0001
  62 P_a :3d2-   0.0000  -0.0043   0.0178   0.0000   0.0029
  63 P_a :3d1-  -0.0131   0.0000  -0.0000   0.0043  -0.0000
  65 P_a :3d1+  -0.0000  -0.0131  -0.0043  -0.0000  -0.0036
  66 P_a :3d2+  -0.0043   0.0000   0.0000  -0.0178   0.0000
  67 P_a :3d2-   0.0000   0.0703  -0.0137  -0.0000  -0.1103
  68 P_a :3d1-  -0.0130  -0.0000   0.0000   0.0181   0.0000
  70 P_a :3d1+   0.0000  -0.0130  -0.0181  -0.0000   0.0233
  71 P_a :3d2+   0.0703  -0.0000  -0.0000   0.0137  -0.0000
  72 P_a :3d2-  -0.0000  -0.0383  -1.6581  -0.0000   0.1930
  73 P_a :3d1-   0.4272  -0.0000  -0.0000   0.2114  -0.0001
  75 P_a :3d1+   0.0000   0.4272  -0.2114  -0.0000  -0.4206
  76 P_a :3d2+  -0.0383  -0.0000  -0.0000   1.6580  -0.0000
  77 P_a :3d2-  -0.0001  -0.0991 -10.8277  -0.0002   0.7549
  78 P_a :3d1-   0.9564  -0.0000  -0.0004   1.4252  -0.0009
  80 P_a :3d1+   0.0000   0.9564  -1.4253  -0.0003  -7.0915
  81 P_a :3d2+  -0.0989  -0.0001  -0.0002  10.8275  -0.0002
 104 P_a :4f2-  -0.0000  -0.0004  -0.0100  -0.0000   0.0016
 108 P_a :4f2+  -0.0004  -0.0000  -0.0000   0.0100  -0.0000
 111 P_a :4f2-   0.0000  -0.0199   0.0476   0.0000   0.0372
 112 P_a :4f1-  -0.0223   0.0000   0.0000   0.0078   0.0000
 114 P_a :4f1+  -0.0000  -0.0223  -0.0078  -0.0000  -0.0006
 115 P_a :4f2+  -0.0199   0.0000   0.0000  -0.0476   0.0000
 118 P_a :4f2-   0.0000   0.0494   0.3655   0.0000  -0.1335
 119 P_a :4f1-  -0.0966   0.0000   0.0000  -0.1132   0.0000
 121 P_a :4f1+  -0.0000  -0.0966   0.1132   0.0000   0.2111
 122 P_a :4f2+   0.0494   0.0000  -0.0000  -0.3655  -0.0000
 126 H_a :1s    -0.0109   0.0000  -0.0000  -0.0150   0.0000
 127 H_a :1s    -0.0205  -0.0000  -0.0001  -0.0602  -0.0001
 128 H_a :1s     0.0469   0.0000  -0.0000   0.1785  -0.0000
 129 H_a :1s    -0.3815   0.0000  -0.0000  -0.7691  -0.0001
 130 H_a :1s    21.8318  -0.0001  -0.0002   0.5538  -0.0002
 137 H_a :2px   -0.0000  -0.0107   0.0098  -0.0000  -0.0079
 138 H_a :2py   -0.0167  -0.0000  -0.0000   0.0084  -0.0000
 139 H_a :2pz   -0.0116   0.0000   0.0000   0.0029   0.0000
 140 H_a :2px    0.0000   0.0006  -0.0356  -0.0000  -0.3023
 141 H_a :2py   -0.1845   0.0000  -0.0000   0.0496  -0.0000
 142 H_a :2pz    0.0144  -0.0000   0.0000  -0.0382   0.0000
 143 H_a :2px   -0.0000  -0.4085  -3.9216  -0.0001  -0.1128
 144 H_a :2py   -0.3658   0.0000   0.0000  -3.7827   0.0000
 145 H_a :2pz    1.9024  -0.0000  -0.0002   0.8505  -0.0004
 146 H_a :2px    0.0002  -1.1887  11.8083  -0.0001  -0.6368
 147 H_a :2py   -1.5055  -0.0000  -0.0001  11.6045  -0.0000
 148 H_a :2pz    0.9135   0.0000   0.0010  -3.7028   0.0024
 164 H_a :3d2-   0.0000   0.0052   0.2496  -0.0000  -0.1174
 165 H_a :3d1-  -0.0798   0.0000   0.0000   0.0201   0.0000
 166 H_a :3d0    0.0401   0.0000   0.0000  -0.0005   0.0000
 167 H_a :3d1+  -0.0000  -0.0949   0.0698   0.0000   0.0338
 168 H_a :3d2+   0.0368   0.0000   0.0000  -0.2613   0.0000
 169 H_a :3d2-   0.0000  -0.4606   3.7857   0.0001  -0.0419
 170 H_a :3d1-  -0.2605   0.0000   0.0002  -2.9207   0.0004
 171 H_a :3d0    0.2811  -0.0000  -0.0002   0.8623  -0.0005
 172 H_a :3d1+  -0.0000  -0.3793  -1.7247   0.0001   2.8690
 173 H_a :3d2+   0.5491   0.0000   0.0000  -4.5282   0.0000
 176 H_b :1s     0.0054   0.0094  -0.0130   0.0075  -0.0164
 177 H_b :1s     0.0103   0.0178  -0.0520   0.0302   1.1258
 178 H_b :1s    -0.0234  -0.0406   0.1546  -0.0893   0.0859
 179 H_b :1s     0.1907   0.3304  -0.6659   0.3842   0.7626
 180 H_b :1s   -10.9161 -18.9076   0.4796  -0.2771   1.3824
 187 H_b :2px   -0.0026  -0.0152  -0.0039   0.0079  -0.0017
 188 H_b :2py   -0.0122  -0.0026  -0.0079  -0.0052   0.0035
 189 H_b :2pz    0.0058   0.0100   0.0025  -0.0014  -0.0142
 190 H_b :2px   -0.0802  -0.1382  -0.0461   0.0061  -0.2650
 191 H_b :2py   -0.0457  -0.0802  -0.0061   0.0391   0.0215
 192 H_b :2pz   -0.0072  -0.0125  -0.0330   0.0191  -0.0990
 193 H_b :2px    0.0183  -0.3763   1.8574  -3.3360  -0.5554
 194 H_b :2py   -0.3976   0.0183   3.3353   1.9949  -0.2548
 195 H_b :2pz   -0.9512  -1.6475   0.7368  -0.4252   2.2814
 196 H_b :2px   -0.1375  -1.4262  -5.7514  10.1401   1.5758
 197 H_b :2py   -1.2675  -0.1377 -10.1401  -5.9556   1.2794
 198 H_b :2pz   -0.4567  -0.7911  -3.2073   1.8509 -16.6140
 214 H_b :3d2-   0.0137   0.0289   0.2584  -0.0051  -0.0259
 215 H_b :3d1-  -0.0911   0.0065  -0.0389  -0.0473   0.0116
 216 H_b :3d0   -0.0201  -0.0347  -0.0005   0.0003  -0.1073
 217 H_b :3d1+   0.0065  -0.0835   0.0024   0.0389   0.0537
 218 H_b :3d2+   0.0131   0.0137   0.0051  -0.2526   0.0528
 219 H_b :3d2-   0.4372   0.2967   4.3429  -0.3214  -0.5015
 220 H_b :3d1-  -0.3496   0.0515   2.0115   0.5631   0.0555
 221 H_b :3d0   -0.1405  -0.2434   0.7470  -0.4308   2.9570
 222 H_b :3d1+   0.0514  -0.2901   1.7597  -2.0115   2.9649
 223 H_b :3d2+  -0.2082   0.4373   0.3217  -3.9716  -0.2652
 226 H_c :1s     0.0054  -0.0094   0.0130   0.0075   0.0164
 227 H_c :1s     0.0103  -0.0178   0.0520   0.0301  -1.1257
 228 H_c :1s    -0.0234   0.0406  -0.1546  -0.0893  -0.0859
 229 H_c :1s     0.1907  -0.3304   0.6660   0.3842  -0.7624
 230 H_c :1s   -10.9157  18.9077  -0.4794  -0.2768  -1.3822
 237 H_c :2px    0.0026  -0.0152  -0.0039  -0.0079  -0.0017
 238 H_c :2py   -0.0122   0.0026   0.0079  -0.0052  -0.0035
 239 H_c :2pz    0.0058  -0.0100  -0.0025  -0.0014   0.0142
 240 H_c :2px    0.0801  -0.1382  -0.0461  -0.0061  -0.2650
 241 H_c :2py   -0.0457   0.0802   0.0061   0.0391  -0.0216
 242 H_c :2pz   -0.0072   0.0125   0.0330   0.0191   0.0990
 243 H_c :2px   -0.0183  -0.3763   1.8573   3.3360  -0.5555
 244 H_c :2py   -0.3977  -0.0183  -3.3354   1.9949   0.2546
 245 H_c :2pz   -0.9511   1.6476  -0.7366  -0.4254  -2.2810
 246 H_c :2px    0.1372  -1.4259  -5.7511 -10.1399   1.5762
 247 H_c :2py   -1.2677   0.1377  10.1403  -5.9548  -1.2791
 248 H_c :2pz   -0.4567   0.7911   3.2063   1.8521  16.6116
 264 H_c :3d2-  -0.0137   0.0289   0.2584   0.0051  -0.0259
 265 H_c :3d1-  -0.0911  -0.0065   0.0389  -0.0473  -0.0115
 266 H_c :3d0   -0.0201   0.0347   0.0005   0.0003   0.1072
 267 H_c :3d1+  -0.0065  -0.0835   0.0024  -0.0389   0.0537
 268 H_c :3d2+   0.0131  -0.0137  -0.0051  -0.2526  -0.0528
 269 H_c :3d2-  -0.4372   0.2967   4.3430   0.3215  -0.5015
 270 H_c :3d1-  -0.3496  -0.0514  -2.0112   0.5630  -0.0548
 271 H_c :3d0   -0.1405   0.2434  -0.7468  -0.4311  -2.9565
 272 H_c :3d1+  -0.0514  -0.2902   1.7596   2.0118   2.9647
 273 H_c :3d2+  -0.2082  -0.4372  -0.3216  -3.9716   0.2654

  Total CPU  time used in SIRIUS :  32.75 seconds
  Total wall time used in SIRIUS :  33.02 seconds

 
     Date and time (Linux)  : Tue Jul 23 16:18:28 2024
     Host name              : dn012                                   

 NOTE:    1 warnings have been issued.
 Check output, result, and error files for "WARNING".


                     .---------------------------------------.
                     | End of Wave Function Section (SIRIUS) |
                     `---------------------------------------'



                 .------------------------------------------------.
                 | Starting in Dynamic Property Section (RESPONS) |
                 `------------------------------------------------'


 ----------------------------------------------------------------------------------------
  RESPONSE  -  an MCSCF, MC-srDFT, DFT, SOPPA and SOPPA-srDFT response property program
 ----------------------------------------------------------------------------------------


 -------- OUTPUT FROM RESPONSE INPUT PROCESSING --------




 Quadratic Response calculation
 ------------------------------

 First hyperpolarizability calculation : HYPCAL= T

 Spin of operator A , ISPINA=    0
 Spin of operator B , ISPINB=    0
 Spin of operator C , ISPINC=    0

  5 B-frequencies  0.000000D+00  1.647050D-02  3.294100D-02  4.941150D-02  6.588200D-02
  5 C-frequencies  0.000000D+00  1.647050D-02  3.294100D-02  4.941150D-02  6.588200D-02


 Print level                                    : IPRHYP =   2
 Maximum number of iterations in lin.rsp. solver: MAXITL =  60
 Threshold for convergence of linear resp. eq.s : THCLR  = 1.000D-03
 Maximum iterations in optimal orbital algorithm: MAXITO =   5
 Direct one-index transformation                : DIROIT = T

    3 A OPERATORS OF SYMMETRY NO:    1 AND LABELS:

          XDIPLEN 
          YDIPLEN 
          ZDIPLEN 

    3 B OPERATORS OF SYMMETRY NO:    1 AND LABELS:

          XDIPLEN 
          YDIPLEN 
          ZDIPLEN 

    3 C OPERATORS OF SYMMETRY NO:    1 AND LABELS:

          XDIPLEN 
          YDIPLEN 
          ZDIPLEN 


   SCF energy         :     -342.490143373373655
 -- inactive part     :     -360.016424079726846
 -- nuclear repulsion :       17.526280706353216


                     ***************************************
                     *** RHF response calculation (TDHF) ***
                     ***************************************



 Linear response calculations for quadratic response
 - singlet property operator of symmetry    1  ( A  )


 Perturbation symmetry.     KSYMOP:           1
 Perturbation spin symmetry.TRPLET:           F
 Orbital variables.         KZWOPT:        2331
 Configuration variables.   KZCONF:           0
 Total number of variables. KZVAR :        2331


 QRLRVE -- linear response calculation for symmetry  1  ( A  )
 QRLRVE -- operator label : XDIPLEN 
 QRLRVE -- operator spin  :   0
 QRLRVE -- frequencies :  0.000000  0.016470  0.032941  0.049411  0.065882
                          0.082352  0.098823  0.115293  0.131764



 ---  SOLVING SETS OF LINEAR EQUATIONS FOR LINEAR RESPONSE PROPERTIES ---

 Operator symmetry = 1  ( A  ); triplet =   F


 ** RSPCTL MICROITERATION NUMBER    1

       No.  Residual tot.,    conf., and orb.    Bnorm      Frequency 
      ----------------------------------------------------------------
         1    1.82417D+00  0.00D+00  1.82D+00  4.94D+00    0.00000D+00
         2    1.82684D+00  0.00D+00  1.83D+00  4.95D+00    1.64705D-02
         3    1.83491D+00  0.00D+00  1.83D+00  5.00D+00    3.29410D-02
         4    1.84860D+00  0.00D+00  1.85D+00  5.08D+00    4.94115D-02
         5    1.86827D+00  0.00D+00  1.87D+00  5.19D+00    6.58820D-02
         6    1.89448D+00  0.00D+00  1.89D+00  5.34D+00    8.23525D-02
         7    1.92801D+00  0.00D+00  1.93D+00  5.53D+00    9.88230D-02
         8    1.96999D+00  0.00D+00  1.97D+00  5.78D+00    1.15293D-01
         9    2.02198D+00  0.00D+00  2.02D+00  6.08D+00    1.31764D-01

 ** RSPCTL MICROITERATION NUMBER    2

       No.  Residual tot.,    conf., and orb.    Bnorm      Frequency 
      ----------------------------------------------------------------
         1    2.91686D-01  0.00D+00  2.92D-01  5.30D+00    0.00000D+00
         2    2.92511D-01  0.00D+00  2.93D-01  5.32D+00    1.64705D-02
         3    2.95015D-01  0.00D+00  2.95D-01  5.37D+00    3.29410D-02
         4    2.99290D-01  0.00D+00  2.99D-01  5.46D+00    4.94115D-02
         5    3.05502D-01  0.00D+00  3.06D-01  5.59D+00    6.58820D-02
         6    3.13907D-01  0.00D+00  3.14D-01  5.77D+00    8.23525D-02
         7    3.24888D-01  0.00D+00  3.25D-01  5.99D+00    9.88230D-02
         8    3.39013D-01  0.00D+00  3.39D-01  6.28D+00    1.15293D-01
         9    3.57140D-01  0.00D+00  3.57D-01  6.65D+00    1.31764D-01

 ** RSPCTL MICROITERATION NUMBER    3

       No.  Residual tot.,    conf., and orb.    Bnorm      Frequency 
      ----------------------------------------------------------------
         1    3.06146D-02  0.00D+00  3.06D-02  5.31D+00    0.00000D+00
         2    3.07898D-02  0.00D+00  3.08D-02  5.33D+00    1.64705D-02
         3    3.13249D-02  0.00D+00  3.13D-02  5.38D+00    3.29410D-02
         4    3.22504D-02  0.00D+00  3.23D-02  5.47D+00    4.94115D-02
         5    3.36218D-02  0.00D+00  3.36D-02  5.60D+00    6.58820D-02
         6    3.55287D-02  0.00D+00  3.55D-02  5.78D+00    8.23525D-02
         7    3.81111D-02  0.00D+00  3.81D-02  6.00D+00    9.88230D-02
         8    4.15877D-02  0.00D+00  4.16D-02  6.29D+00    1.15293D-01
         9    4.63086D-02  0.00D+00  4.63D-02  6.66D+00    1.31764D-01

 ** RSPCTL MICROITERATION NUMBER    4

       No.  Residual tot.,    conf., and orb.    Bnorm      Frequency 
      ----------------------------------------------------------------
         1    4.17788D-03  0.00D+00  4.18D-03  5.31D+00    0.00000D+00
         2    4.20140D-03  0.00D+00  4.20D-03  5.33D+00    1.64705D-02
         3    4.27439D-03  0.00D+00  4.27D-03  5.38D+00    3.29410D-02
         4    4.40463D-03  0.00D+00  4.40D-03  5.47D+00    4.94115D-02
         5    4.60725D-03  0.00D+00  4.61D-03  5.60D+00    6.58820D-02
         6    4.90857D-03  0.00D+00  4.91D-03  5.78D+00    8.23525D-02
         7    5.35319D-03  0.00D+00  5.35D-03  6.00D+00    9.88230D-02
         8    6.01665D-03  0.00D+00  6.02D-03  6.29D+00    1.15293D-01
         9    7.02816D-03  0.00D+00  7.03D-03  6.66D+00    1.31764D-01

 ** RSPCTL MICROITERATION NUMBER    5

       No.  Residual tot.,    conf., and orb.    Bnorm      Frequency 
      ----------------------------------------------------------------
         1    2.13906D-03  0.00D+00  2.14D-03  5.31D+00    0.00000D+00
         2    2.11829D-03  0.00D+00  2.12D-03  5.33D+00    1.64705D-02
         3    2.05368D-03  0.00D+00  2.05D-03  5.38D+00    3.29410D-02
         4    1.93824D-03  0.00D+00  1.94D-03  5.47D+00    4.94115D-02
         5    1.76010D-03  0.00D+00  1.76D-03  5.60D+00    6.58820D-02
         6    1.50475D-03  0.00D+00  1.50D-03  5.78D+00    8.23525D-02
         7    1.17266D-03  0.00D+00  1.17D-03  6.00D+00    9.88230D-02
         8    9.04497D-04  0.00D+00  9.04D-04  6.29D+00    1.15293D-01
         9    1.30471D-03  0.00D+00  1.30D-03  6.66D+00    1.31764D-01

 *** THE REQUESTED    9 SOLUTION VECTORS CONVERGED

 Convergence of RSP solution vectors, threshold = 1.00D-03
 ---------------------------------------------------------------
 (dimension of paired reduced space:   74)
 RSP solution vector no.    1; norm of residual   4.03D-04
 RSP solution vector no.    2; norm of residual   3.98D-04
 RSP solution vector no.    3; norm of residual   3.82D-04
 RSP solution vector no.    4; norm of residual   3.54D-04
 RSP solution vector no.    5; norm of residual   3.14D-04
 RSP solution vector no.    6; norm of residual   2.60D-04
 RSP solution vector no.    7; norm of residual   1.95D-04
 RSP solution vector no.    8; norm of residual   1.44D-04
 RSP solution vector no.    9; norm of residual   1.96D-04

 *** RSPCTL MICROITERATIONS CONVERGED

@ QRLRVE: SINGLET SOLUTION FOR SYMMETRY    1  ( A  )    LABEL   XDIPLEN     FREQUENCY   0.000000D+00

@ QRLRVE:  << XDIPLEN  ; XDIPLEN  >> (   0.00000):     29.5139517908    

@ QRLRVE:  << YDIPLEN  ; XDIPLEN  >> (   0.00000):    4.684741146098E-04

@ QRLRVE:  << ZDIPLEN  ; XDIPLEN  >> (   0.00000):    1.844612135020E-04

@ QRLRVE: SINGLET SOLUTION FOR SYMMETRY    1  ( A  )    LABEL   XDIPLEN     FREQUENCY   0.164705D-01

@ QRLRVE:  << XDIPLEN  ; XDIPLEN  >> (   0.01647):     29.5609875830    

@ QRLRVE:  << YDIPLEN  ; XDIPLEN  >> (   0.01647):    4.655337475241E-04

@ QRLRVE:  << ZDIPLEN  ; XDIPLEN  >> (   0.01647):    1.818911743588E-04

@ QRLRVE: SINGLET SOLUTION FOR SYMMETRY    1  ( A  )    LABEL   XDIPLEN     FREQUENCY   0.329410D-01

@ QRLRVE:  << XDIPLEN  ; XDIPLEN  >> (   0.03294):     29.7033346643    

@ QRLRVE:  << YDIPLEN  ; XDIPLEN  >> (   0.03294):    4.562787092270E-04

@ QRLRVE:  << ZDIPLEN  ; XDIPLEN  >> (   0.03294):    1.738041852621E-04

@ QRLRVE: SINGLET SOLUTION FOR SYMMETRY    1  ( A  )    LABEL   XDIPLEN     FREQUENCY   0.494115D-01

@ QRLRVE:  << XDIPLEN  ; XDIPLEN  >> (   0.04941):     29.9448163902    

@ QRLRVE:  << YDIPLEN  ; XDIPLEN  >> (   0.04941):    4.393318166734E-04

@ QRLRVE:  << ZDIPLEN  ; XDIPLEN  >> (   0.04941):    1.589979307242E-04

@ QRLRVE: SINGLET SOLUTION FOR SYMMETRY    1  ( A  )    LABEL   XDIPLEN     FREQUENCY   0.658820D-01

@ QRLRVE:  << XDIPLEN  ; XDIPLEN  >> (   0.06588):     30.2921718474    

@ QRLRVE:  << YDIPLEN  ; XDIPLEN  >> (   0.06588):    4.121266498226E-04

@ QRLRVE:  << ZDIPLEN  ; XDIPLEN  >> (   0.06588):    1.352092308515E-04

@ QRLRVE: SINGLET SOLUTION FOR SYMMETRY    1  ( A  )    LABEL   XDIPLEN     FREQUENCY   0.823525D-01

@ QRLRVE:  << XDIPLEN  ; XDIPLEN  >> (   0.08235):     30.7556803057    

@ QRLRVE:  << YDIPLEN  ; XDIPLEN  >> (   0.08235):    3.704233904125E-04

@ QRLRVE:  << ZDIPLEN  ; XDIPLEN  >> (   0.08235):    9.864547214578E-05

@ QRLRVE: SINGLET SOLUTION FOR SYMMETRY    1  ( A  )    LABEL   XDIPLEN     FREQUENCY   0.988230D-01

@ QRLRVE:  << XDIPLEN  ; XDIPLEN  >> (   0.09882):     31.3502106445    

@ QRLRVE:  << YDIPLEN  ; XDIPLEN  >> (   0.09882):    3.074428370266E-04

@ QRLRVE:  << ZDIPLEN  ; XDIPLEN  >> (   0.09882):    4.313386464272E-05

@ QRLRVE: SINGLET SOLUTION FOR SYMMETRY    1  ( A  )    LABEL   XDIPLEN     FREQUENCY   0.115293D+00

@ QRLRVE:  << XDIPLEN  ; XDIPLEN  >> (   0.11529):     32.0969488770    

@ QRLRVE:  << YDIPLEN  ; XDIPLEN  >> (   0.11529):    2.123320626878E-04

@ QRLRVE:  << ZDIPLEN  ; XDIPLEN  >> (   0.11529):   -4.141211073658E-05

@ QRLRVE: SINGLET SOLUTION FOR SYMMETRY    1  ( A  )    LABEL   XDIPLEN     FREQUENCY   0.131764D+00

@ QRLRVE:  << XDIPLEN  ; XDIPLEN  >> (   0.13176):     33.0262937648    

@ QRLRVE:  << YDIPLEN  ; XDIPLEN  >> (   0.13176):    6.737981292395E-05

@ QRLRVE:  << ZDIPLEN  ; XDIPLEN  >> (   0.13176):   -1.718266746456E-04


 QRLRVE -- linear response calculation for symmetry  1  ( A  )
 QRLRVE -- operator label : YDIPLEN 
 QRLRVE -- operator spin  :   0
 QRLRVE -- frequencies :  0.000000  0.016470  0.032941  0.049411  0.065882
                          0.082352  0.098823  0.115293  0.131764



 ---  SOLVING SETS OF LINEAR EQUATIONS FOR LINEAR RESPONSE PROPERTIES ---

 Operator symmetry = 1  ( A  ); triplet =   F


 ** RSPCTL MICROITERATION NUMBER    1

       No.  Residual tot.,    conf., and orb.    Bnorm      Frequency 
      ----------------------------------------------------------------
         1    1.83112D+00  0.00D+00  1.83D+00  4.94D+00    0.00000D+00
         2    1.83379D+00  0.00D+00  1.83D+00  4.95D+00    1.64705D-02
         3    1.84189D+00  0.00D+00  1.84D+00  5.00D+00    3.29410D-02
         4    1.85561D+00  0.00D+00  1.86D+00  5.08D+00    4.94115D-02
         5    1.87533D+00  0.00D+00  1.88D+00  5.19D+00    6.58820D-02
         6    1.90159D+00  0.00D+00  1.90D+00  5.34D+00    8.23525D-02
         7    1.93520D+00  0.00D+00  1.94D+00  5.53D+00    9.88230D-02
         8    1.97728D+00  0.00D+00  1.98D+00  5.78D+00    1.15293D-01
         9    2.02939D+00  0.00D+00  2.03D+00  6.08D+00    1.31764D-01

 ** RSPCTL MICROITERATION NUMBER    2

       No.  Residual tot.,    conf., and orb.    Bnorm      Frequency 
      ----------------------------------------------------------------
         1    2.92379D-01  0.00D+00  2.92D-01  5.30D+00    0.00000D+00
         2    2.93201D-01  0.00D+00  2.93D-01  5.32D+00    1.64705D-02
         3    2.95696D-01  0.00D+00  2.96D-01  5.37D+00    3.29410D-02
         4    2.99956D-01  0.00D+00  3.00D-01  5.46D+00    4.94115D-02
         5    3.06144D-01  0.00D+00  3.06D-01  5.59D+00    6.58820D-02
         6    3.14517D-01  0.00D+00  3.15D-01  5.77D+00    8.23525D-02
         7    3.25455D-01  0.00D+00  3.25D-01  5.99D+00    9.88230D-02
         8    3.39523D-01  0.00D+00  3.40D-01  6.28D+00    1.15293D-01
         9    3.57573D-01  0.00D+00  3.58D-01  6.65D+00    1.31764D-01

 ** RSPCTL MICROITERATION NUMBER    3

       No.  Residual tot.,    conf., and orb.    Bnorm      Frequency 
      ----------------------------------------------------------------
         1    3.05536D-02  0.00D+00  3.06D-02  5.31D+00    0.00000D+00
         2    3.07310D-02  0.00D+00  3.07D-02  5.33D+00    1.64705D-02
         3    3.12730D-02  0.00D+00  3.13D-02  5.38D+00    3.29410D-02
         4    3.22110D-02  0.00D+00  3.22D-02  5.47D+00    4.94115D-02
         5    3.36021D-02  0.00D+00  3.36D-02  5.60D+00    6.58820D-02
         6    3.55386D-02  0.00D+00  3.55D-02  5.78D+00    8.23525D-02
         7    3.81644D-02  0.00D+00  3.82D-02  6.00D+00    9.88230D-02
         8    4.17044D-02  0.00D+00  4.17D-02  6.29D+00    1.15293D-01
         9    4.65182D-02  0.00D+00  4.65D-02  6.66D+00    1.31764D-01

 ** RSPCTL MICROITERATION NUMBER    4

       No.  Residual tot.,    conf., and orb.    Bnorm      Frequency 
      ----------------------------------------------------------------
         1    4.08468D-03  0.00D+00  4.08D-03  5.31D+00    0.00000D+00
         2    4.10958D-03  0.00D+00  4.11D-03  5.33D+00    1.64705D-02
         3    4.18684D-03  0.00D+00  4.19D-03  5.38D+00    3.29410D-02
         4    4.32465D-03  0.00D+00  4.32D-03  5.47D+00    4.94115D-02
         5    4.53879D-03  0.00D+00  4.54D-03  5.60D+00    6.58820D-02
         6    4.85652D-03  0.00D+00  4.86D-03  5.78D+00    8.23525D-02
         7    5.32354D-03  0.00D+00  5.32D-03  6.00D+00    9.88230D-02
         8    6.01648D-03  0.00D+00  6.02D-03  6.29D+00    1.15293D-01
         9    7.06538D-03  0.00D+00  7.07D-03  6.66D+00    1.31764D-01

 ** RSPCTL MICROITERATION NUMBER    5

       No.  Residual tot.,    conf., and orb.    Bnorm      Frequency 
      ----------------------------------------------------------------
         1    2.18628D-03  0.00D+00  2.19D-03  5.31D+00    0.00000D+00
         2    2.16831D-03  0.00D+00  2.17D-03  5.33D+00    1.64705D-02
         3    2.11240D-03  0.00D+00  2.11D-03  5.38D+00    3.29410D-02
         4    2.01249D-03  0.00D+00  2.01D-03  5.47D+00    4.94115D-02
         5    1.85851D-03  0.00D+00  1.86D-03  5.60D+00    6.58820D-02
         6    1.63872D-03  0.00D+00  1.64D-03  5.78D+00    8.23525D-02
         7    1.35453D-03  0.00D+00  1.35D-03  6.00D+00    9.88230D-02
         8    1.10512D-03  0.00D+00  1.11D-03  6.29D+00    1.15293D-01
         9    1.33863D-03  0.00D+00  1.34D-03  6.66D+00    1.31764D-01

 *** THE REQUESTED    9 SOLUTION VECTORS CONVERGED

 Convergence of RSP solution vectors, threshold = 1.00D-03
 ---------------------------------------------------------------
 (dimension of paired reduced space:   74)
 RSP solution vector no.    1; norm of residual   4.12D-04
 RSP solution vector no.    2; norm of residual   4.07D-04
 RSP solution vector no.    3; norm of residual   3.93D-04
 RSP solution vector no.    4; norm of residual   3.68D-04
 RSP solution vector no.    5; norm of residual   3.32D-04
 RSP solution vector no.    6; norm of residual   2.84D-04
 RSP solution vector no.    7; norm of residual   2.26D-04
 RSP solution vector no.    8; norm of residual   1.76D-04
 RSP solution vector no.    9; norm of residual   2.01D-04

 *** RSPCTL MICROITERATIONS CONVERGED

@ QRLRVE: SINGLET SOLUTION FOR SYMMETRY    1  ( A  )    LABEL   YDIPLEN     FREQUENCY   0.000000D+00

@ QRLRVE:  << XDIPLEN  ; YDIPLEN  >> (   0.00000):   -5.342013683796E-05

@ QRLRVE:  << YDIPLEN  ; YDIPLEN  >> (   0.00000):     29.5146257965    

@ QRLRVE:  << ZDIPLEN  ; YDIPLEN  >> (   0.00000):    1.548752802934E-04

@ QRLRVE: SINGLET SOLUTION FOR SYMMETRY    1  ( A  )    LABEL   YDIPLEN     FREQUENCY   0.164705D-01

@ QRLRVE:  << XDIPLEN  ; YDIPLEN  >> (   0.01647):   -5.164748870334E-05

@ QRLRVE:  << YDIPLEN  ; YDIPLEN  >> (   0.01647):     29.5616635229    

@ QRLRVE:  << ZDIPLEN  ; YDIPLEN  >> (   0.01647):    1.551484182623E-04

@ QRLRVE: SINGLET SOLUTION FOR SYMMETRY    1  ( A  )    LABEL   YDIPLEN     FREQUENCY   0.329410D-01

@ QRLRVE:  << XDIPLEN  ; YDIPLEN  >> (   0.03294):   -4.611509074201E-05

@ QRLRVE:  << YDIPLEN  ; YDIPLEN  >> (   0.03294):     29.7040164678    

@ QRLRVE:  << ZDIPLEN  ; YDIPLEN  >> (   0.03294):    1.560563732850E-04

@ QRLRVE: SINGLET SOLUTION FOR SYMMETRY    1  ( A  )    LABEL   YDIPLEN     FREQUENCY   0.494115D-01

@ QRLRVE:  << XDIPLEN  ; YDIPLEN  >> (   0.04941):   -3.613308188202E-05

@ QRLRVE:  << YDIPLEN  ; YDIPLEN  >> (   0.04941):     29.9455081750    

@ QRLRVE:  << ZDIPLEN  ; YDIPLEN  >> (   0.04941):    1.579030471306E-04

@ QRLRVE: SINGLET SOLUTION FOR SYMMETRY    1  ( A  )    LABEL   YDIPLEN     FREQUENCY   0.658820D-01

@ QRLRVE:  << XDIPLEN  ; YDIPLEN  >> (   0.06588):   -2.038139590434E-05

@ QRLRVE:  << YDIPLEN  ; YDIPLEN  >> (   0.06588):     30.2928780621    

@ QRLRVE:  << ZDIPLEN  ; YDIPLEN  >> (   0.06588):    1.613394119546E-04

@ QRLRVE: SINGLET SOLUTION FOR SYMMETRY    1  ( A  )    LABEL   YDIPLEN     FREQUENCY   0.823525D-01

@ QRLRVE:  << XDIPLEN  ; YDIPLEN  >> (   0.08235):    3.406388176759E-06

@ QRLRVE:  << YDIPLEN  ; YDIPLEN  >> (   0.08235):     30.7564059013    

@ QRLRVE:  << ZDIPLEN  ; YDIPLEN  >> (   0.08235):    1.676485465720E-04

@ QRLRVE: SINGLET SOLUTION FOR SYMMETRY    1  ( A  )    LABEL   YDIPLEN     FREQUENCY   0.988230D-01

@ QRLRVE:  << XDIPLEN  ; YDIPLEN  >> (   0.09882):    3.903753151277E-05

@ QRLRVE:  << YDIPLEN  ; YDIPLEN  >> (   0.09882):     31.3509612927    

@ QRLRVE:  << ZDIPLEN  ; YDIPLEN  >> (   0.09882):    1.793214022635E-04

@ QRLRVE: SINGLET SOLUTION FOR SYMMETRY    1  ( A  )    LABEL   YDIPLEN     FREQUENCY   0.115293D+00

@ QRLRVE:  << XDIPLEN  ; YDIPLEN  >> (   0.11529):    9.297726707227E-05

@ QRLRVE:  << YDIPLEN  ; YDIPLEN  >> (   0.11529):     32.0977312615    

@ QRLRVE:  << ZDIPLEN  ; YDIPLEN  >> (   0.11529):    2.012242970616E-04

@ QRLRVE: SINGLET SOLUTION FOR SYMMETRY    1  ( A  )    LABEL   YDIPLEN     FREQUENCY   0.131764D+00

@ QRLRVE:  << XDIPLEN  ; YDIPLEN  >> (   0.13176):    1.765103346864E-04

@ QRLRVE:  << YDIPLEN  ; YDIPLEN  >> (   0.13176):     33.0271159892    

@ QRLRVE:  << ZDIPLEN  ; YDIPLEN  >> (   0.13176):    2.430337497581E-04


 QRLRVE -- linear response calculation for symmetry  1  ( A  )
 QRLRVE -- operator label : ZDIPLEN 
 QRLRVE -- operator spin  :   0
 QRLRVE -- frequencies :  0.000000  0.016470  0.032941  0.049411  0.065882
                          0.082352  0.098823  0.115293  0.131764



 ---  SOLVING SETS OF LINEAR EQUATIONS FOR LINEAR RESPONSE PROPERTIES ---

 Operator symmetry = 1  ( A  ); triplet =   F


 ** RSPCTL MICROITERATION NUMBER    1

       No.  Residual tot.,    conf., and orb.    Bnorm      Frequency 
      ----------------------------------------------------------------
         1    1.66970D+00  0.00D+00  1.67D+00  5.32D+00    0.00000D+00
         2    1.67188D+00  0.00D+00  1.67D+00  5.34D+00    1.64705D-02
         3    1.67848D+00  0.00D+00  1.68D+00  5.40D+00    3.29410D-02
         4    1.68968D+00  0.00D+00  1.69D+00  5.50D+00    4.94115D-02
         5    1.70577D+00  0.00D+00  1.71D+00  5.63D+00    6.58820D-02
         6    1.72722D+00  0.00D+00  1.73D+00  5.82D+00    8.23525D-02
         7    1.75470D+00  0.00D+00  1.75D+00  6.06D+00    9.88230D-02
         8    1.78918D+00  0.00D+00  1.79D+00  6.37D+00    1.15293D-01
         9    1.83206D+00  0.00D+00  1.83D+00  6.77D+00    1.31764D-01

 ** RSPCTL MICROITERATION NUMBER    2

       No.  Residual tot.,    conf., and orb.    Bnorm      Frequency 
      ----------------------------------------------------------------
         1    4.13062D-01  0.00D+00  4.13D-01  5.68D+00    0.00000D+00
         2    4.13824D-01  0.00D+00  4.14D-01  5.70D+00    1.64705D-02
         3    4.16134D-01  0.00D+00  4.16D-01  5.77D+00    3.29410D-02
         4    4.20064D-01  0.00D+00  4.20D-01  5.88D+00    4.94115D-02
         5    4.25742D-01  0.00D+00  4.26D-01  6.04D+00    6.58820D-02
         6    4.33369D-01  0.00D+00  4.33D-01  6.26D+00    8.23525D-02
         7    4.43249D-01  0.00D+00  4.43D-01  6.55D+00    9.88230D-02
         8    4.55840D-01  0.00D+00  4.56D-01  6.92D+00    1.15293D-01
         9    4.71853D-01  0.00D+00  4.72D-01  7.40D+00    1.31764D-01

 ** RSPCTL MICROITERATION NUMBER    3

       No.  Residual tot.,    conf., and orb.    Bnorm      Frequency 
      ----------------------------------------------------------------
         1    6.15414D-02  0.00D+00  6.15D-02  5.69D+00    0.00000D+00
         2    6.16281D-02  0.00D+00  6.16D-02  5.71D+00    1.64705D-02
         3    6.18919D-02  0.00D+00  6.19D-02  5.78D+00    3.29410D-02
         4    6.23448D-02  0.00D+00  6.23D-02  5.89D+00    4.94115D-02
         5    6.30092D-02  0.00D+00  6.30D-02  6.05D+00    6.58820D-02
         6    6.39219D-02  0.00D+00  6.39D-02  6.27D+00    8.23525D-02
         7    6.51434D-02  0.00D+00  6.51D-02  6.56D+00    9.88230D-02
         8    6.67723D-02  0.00D+00  6.68D-02  6.94D+00    1.15293D-01
         9    6.89765D-02  0.00D+00  6.90D-02  7.42D+00    1.31764D-01

 ** RSPCTL MICROITERATION NUMBER    4

       No.  Residual tot.,    conf., and orb.    Bnorm      Frequency 
      ----------------------------------------------------------------
         1    6.32772D-03  0.00D+00  6.33D-03  5.69D+00    0.00000D+00
         2    6.35883D-03  0.00D+00  6.36D-03  5.71D+00    1.64705D-02
         3    6.45425D-03  0.00D+00  6.45D-03  5.78D+00    3.29410D-02
         4    6.62049D-03  0.00D+00  6.62D-03  5.89D+00    4.94115D-02
         5    6.86950D-03  0.00D+00  6.87D-03  6.05D+00    6.58820D-02
         6    7.22042D-03  0.00D+00  7.22D-03  6.27D+00    8.23525D-02
         7    7.70294D-03  0.00D+00  7.70D-03  6.56D+00    9.88230D-02
         8    8.36303D-03  0.00D+00  8.36D-03  6.94D+00    1.15293D-01
         9    9.27354D-03  0.00D+00  9.27D-03  7.42D+00    1.31764D-01

 ** RSPCTL MICROITERATION NUMBER    5

       No.  Residual tot.,    conf., and orb.    Bnorm      Frequency 
      ----------------------------------------------------------------
         1    6.77902D-04  0.00D+00  6.78D-04  5.69D+00    0.00000D+00
         2    6.82206D-04  0.00D+00  6.82D-04  5.71D+00    1.64705D-02
         3    6.95433D-04  0.00D+00  6.95D-04  5.78D+00    3.29410D-02
         4    7.18580D-04  0.00D+00  7.19D-04  5.89D+00    4.94115D-02
         5    7.53518D-04  0.00D+00  7.54D-04  6.05D+00    6.58820D-02
         6    8.03377D-04  0.00D+00  8.03D-04  6.27D+00    8.23525D-02
         7    8.73268D-04  0.00D+00  8.73D-04  6.56D+00    9.88230D-02
         8    9.71656D-04  0.00D+00  9.72D-04  6.94D+00    1.15293D-01
         9    1.11302D-03  0.00D+00  1.11D-03  7.42D+00    1.31764D-01

 *** THE REQUESTED    9 SOLUTION VECTORS CONVERGED

 Convergence of RSP solution vectors, threshold = 1.00D-03
 ---------------------------------------------------------------
 (dimension of paired reduced space:   90)
 RSP solution vector no.    1; norm of residual   1.19D-04
 RSP solution vector no.    2; norm of residual   1.19D-04
 RSP solution vector no.    3; norm of residual   1.20D-04
 RSP solution vector no.    4; norm of residual   1.22D-04
 RSP solution vector no.    5; norm of residual   1.25D-04
 RSP solution vector no.    6; norm of residual   1.28D-04
 RSP solution vector no.    7; norm of residual   1.33D-04
 RSP solution vector no.    8; norm of residual   1.40D-04
 RSP solution vector no.    9; norm of residual   1.50D-04

 *** RSPCTL MICROITERATIONS CONVERGED

@ QRLRVE: SINGLET SOLUTION FOR SYMMETRY    1  ( A  )    LABEL   ZDIPLEN     FREQUENCY   0.000000D+00

@ QRLRVE:  << XDIPLEN  ; ZDIPLEN  >> (   0.00000):   -1.065737627326E-04

@ QRLRVE:  << YDIPLEN  ; ZDIPLEN  >> (   0.00000):    2.142596825933E-04

@ QRLRVE:  << ZDIPLEN  ; ZDIPLEN  >> (   0.00000):     30.5148249491    

@ QRLRVE: SINGLET SOLUTION FOR SYMMETRY    1  ( A  )    LABEL   ZDIPLEN     FREQUENCY   0.164705D-01

@ QRLRVE:  << XDIPLEN  ; ZDIPLEN  >> (   0.01647):   -1.080197873836E-04

@ QRLRVE:  << YDIPLEN  ; ZDIPLEN  >> (   0.01647):    2.149217707055E-04

@ QRLRVE:  << ZDIPLEN  ; ZDIPLEN  >> (   0.01647):     30.5706175129    

@ QRLRVE: SINGLET SOLUTION FOR SYMMETRY    1  ( A  )    LABEL   ZDIPLEN     FREQUENCY   0.329410D-01

@ QRLRVE:  << XDIPLEN  ; ZDIPLEN  >> (   0.03294):   -1.124846557460E-04

@ QRLRVE:  << YDIPLEN  ; ZDIPLEN  >> (   0.03294):    2.169403464231E-04

@ QRLRVE:  << ZDIPLEN  ; ZDIPLEN  >> (   0.03294):     30.7397563472    

[...]
@ B-freq = 0.049411  C-freq = 0.049411     beta(Y;Z,Y) =     -5.70015338
@ B-freq = 0.049411  C-freq = 0.049411     beta(Z;Z,Y) =      0.00167121
@ B-freq = 0.065882  C-freq = 0.049411     beta(X;Z,Y) =     -0.00074584
@ B-freq = 0.065882  C-freq = 0.049411     beta(Y;Z,Y) =     -6.44018024
@ B-freq = 0.065882  C-freq = 0.049411     beta(Z;Z,Y) =      0.00176062
@ B-freq = 0.000000  C-freq = 0.065882     beta(X;X,Y) = beta(X,Y,X)
@ B-freq = 0.000000  C-freq = 0.065882     beta(Y;X,Y) = beta(Y,Y,X)
@ B-freq = 0.000000  C-freq = 0.065882     beta(Z;X,Y) = beta(Z,Y,X)
@ B-freq = 0.016470  C-freq = 0.065882     beta(X;X,Y) = beta(X,Y,X)
@ B-freq = 0.016470  C-freq = 0.065882     beta(Y;X,Y) = beta(Y,Y,X)
@ B-freq = 0.016470  C-freq = 0.065882     beta(Z;X,Y) = beta(Z,Y,X)
@ B-freq = 0.032941  C-freq = 0.065882     beta(X;X,Y) = beta(X,Y,X)
@ B-freq = 0.032941  C-freq = 0.065882     beta(Y;X,Y) = beta(Y,Y,X)
@ B-freq = 0.032941  C-freq = 0.065882     beta(Z;X,Y) = beta(Z,Y,X)
@ B-freq = 0.049411  C-freq = 0.065882     beta(X;X,Y) = beta(X,Y,X)
@ B-freq = 0.049411  C-freq = 0.065882     beta(Y;X,Y) = beta(Y,Y,X)
@ B-freq = 0.049411  C-freq = 0.065882     beta(Z;X,Y) = beta(Z,Y,X)
@ B-freq = 0.065882  C-freq = 0.065882     beta(X;X,Y) = beta(X,Y,X)
@ B-freq = 0.065882  C-freq = 0.065882     beta(Y;X,Y) = beta(Y,Y,X)
@ B-freq = 0.065882  C-freq = 0.065882     beta(Z;X,Y) = beta(Z,Y,X)
@ B-freq = 0.000000  C-freq = 0.065882     beta(X;Y,Y) = beta(X,Y,Y)
@ B-freq = 0.000000  C-freq = 0.065882     beta(Y;Y,Y) = beta(Y,Y,Y)
@ B-freq = 0.000000  C-freq = 0.065882     beta(Z;Y,Y) = beta(Z,Y,Y)
@ B-freq = 0.016470  C-freq = 0.065882     beta(X;Y,Y) = beta(X,Y,Y)
@ B-freq = 0.016470  C-freq = 0.065882     beta(Y;Y,Y) = beta(Y,Y,Y)
@ B-freq = 0.016470  C-freq = 0.065882     beta(Z;Y,Y) = beta(Z,Y,Y)
@ B-freq = 0.032941  C-freq = 0.065882     beta(X;Y,Y) = beta(X,Y,Y)
@ B-freq = 0.032941  C-freq = 0.065882     beta(Y;Y,Y) = beta(Y,Y,Y)
@ B-freq = 0.032941  C-freq = 0.065882     beta(Z;Y,Y) = beta(Z,Y,Y)
@ B-freq = 0.049411  C-freq = 0.065882     beta(X;Y,Y) = beta(X,Y,Y)
@ B-freq = 0.049411  C-freq = 0.065882     beta(Y;Y,Y) = beta(Y,Y,Y)
@ B-freq = 0.049411  C-freq = 0.065882     beta(Z;Y,Y) = beta(Z,Y,Y)
@ B-freq = 0.065882  C-freq = 0.065882     beta(X;Y,Y) =      0.00031659
@ B-freq = 0.065882  C-freq = 0.065882     beta(Y;Y,Y) =     17.25603522
@ B-freq = 0.065882  C-freq = 0.065882     beta(Z;Y,Y) =     -8.35616833
@ B-freq = 0.000000  C-freq = 0.065882     beta(X;Z,Y) =     -0.00066910
@ B-freq = 0.000000  C-freq = 0.065882     beta(Y;Z,Y) =     -4.99186895
@ B-freq = 0.000000  C-freq = 0.065882     beta(Z;Z,Y) =      0.00136127
@ B-freq = 0.016470  C-freq = 0.065882     beta(X;Z,Y) =     -0.00067921
@ B-freq = 0.016470  C-freq = 0.065882     beta(Y;Z,Y) =     -5.22183745
@ B-freq = 0.016470  C-freq = 0.065882     beta(Z;Z,Y) =      0.00140213
@ B-freq = 0.032941  C-freq = 0.065882     beta(X;Z,Y) =     -0.00069689
@ B-freq = 0.032941  C-freq = 0.065882     beta(Y;Z,Y) =     -5.61957297
@ B-freq = 0.032941  C-freq = 0.065882     beta(Z;Z,Y) =      0.00146166
@ B-freq = 0.049411  C-freq = 0.065882     beta(X;Z,Y) =     -0.00072243
@ B-freq = 0.049411  C-freq = 0.065882     beta(Y;Z,Y) =     -6.24177862
@ B-freq = 0.049411  C-freq = 0.065882     beta(Z;Z,Y) =      0.00154168
@ B-freq = 0.065882  C-freq = 0.065882     beta(X;Z,Y) =     -0.00075507
@ B-freq = 0.065882  C-freq = 0.065882     beta(Y;Z,Y) =     -7.18617213
@ B-freq = 0.065882  C-freq = 0.065882     beta(Z;Z,Y) =      0.00164263
@ B-freq = 0.000000  C-freq = 0.000000     beta(X;X,Z) = beta(Z,X,X)
@ B-freq = 0.000000  C-freq = 0.000000     beta(Y;X,Z) = beta(Z,Y,X)
@ B-freq = 0.000000  C-freq = 0.000000     beta(Z;X,Z) = beta(Z,Z,X)
@ B-freq = 0.016470  C-freq = 0.000000     beta(X;X,Z) = beta(X,Z,X)
@ B-freq = 0.016470  C-freq = 0.000000     beta(Y;X,Z) = beta(Y,Z,X)
@ B-freq = 0.016470  C-freq = 0.000000     beta(Z;X,Z) = beta(Z,Z,X)
@ B-freq = 0.032941  C-freq = 0.000000     beta(X;X,Z) = beta(X,Z,X)
@ B-freq = 0.032941  C-freq = 0.000000     beta(Y;X,Z) = beta(Y,Z,X)
@ B-freq = 0.032941  C-freq = 0.000000     beta(Z;X,Z) = beta(Z,Z,X)
@ B-freq = 0.049411  C-freq = 0.000000     beta(X;X,Z) = beta(X,Z,X)
@ B-freq = 0.049411  C-freq = 0.000000     beta(Y;X,Z) = beta(Y,Z,X)
@ B-freq = 0.049411  C-freq = 0.000000     beta(Z;X,Z) = beta(Z,Z,X)
@ B-freq = 0.065882  C-freq = 0.000000     beta(X;X,Z) = beta(X,Z,X)
@ B-freq = 0.065882  C-freq = 0.000000     beta(Y;X,Z) = beta(Y,Z,X)
@ B-freq = 0.065882  C-freq = 0.000000     beta(Z;X,Z) = beta(Z,Z,X)
@ B-freq = 0.000000  C-freq = 0.000000     beta(X;Y,Z) = beta(Z,Y,X)
@ B-freq = 0.000000  C-freq = 0.000000     beta(Y;Y,Z) = beta(Z,Y,Y)
@ B-freq = 0.000000  C-freq = 0.000000     beta(Z;Y,Z) = beta(Z,Z,Y)
@ B-freq = 0.016470  C-freq = 0.000000     beta(X;Y,Z) = beta(X,Z,Y)
@ B-freq = 0.016470  C-freq = 0.000000     beta(Y;Y,Z) = beta(Y,Z,Y)
@ B-freq = 0.016470  C-freq = 0.000000     beta(Z;Y,Z) = beta(Z,Z,Y)
@ B-freq = 0.032941  C-freq = 0.000000     beta(X;Y,Z) = beta(X,Z,Y)
@ B-freq = 0.032941  C-freq = 0.000000     beta(Y;Y,Z) = beta(Y,Z,Y)
@ B-freq = 0.032941  C-freq = 0.000000     beta(Z;Y,Z) = beta(Z,Z,Y)
@ B-freq = 0.049411  C-freq = 0.000000     beta(X;Y,Z) = beta(X,Z,Y)
@ B-freq = 0.049411  C-freq = 0.000000     beta(Y;Y,Z) = beta(Y,Z,Y)
@ B-freq = 0.049411  C-freq = 0.000000     beta(Z;Y,Z) = beta(Z,Z,Y)
@ B-freq = 0.065882  C-freq = 0.000000     beta(X;Y,Z) = beta(X,Z,Y)
@ B-freq = 0.065882  C-freq = 0.000000     beta(Y;Y,Z) = beta(Y,Z,Y)
@ B-freq = 0.065882  C-freq = 0.000000     beta(Z;Y,Z) = beta(Z,Z,Y)
@ B-freq = 0.000000  C-freq = 0.000000     beta(X;Z,Z) = beta(Z,Z,X)
@ B-freq = 0.000000  C-freq = 0.000000     beta(Y;Z,Z) = beta(Z,Z,Y)
@ B-freq = 0.000000  C-freq = 0.000000     beta(X;Z,Z) =      0.00202040
@ B-freq = 0.000000  C-freq = 0.000000     beta(Y;Z,Z) =      0.00166472
@ B-freq = 0.000000  C-freq = 0.000000     beta(Z;Z,Z) =    -30.99596843
@ B-freq = 0.016470  C-freq = 0.000000     beta(X;Z,Z) =      0.00201444
@ B-freq = 0.016470  C-freq = 0.000000     beta(Y;Z,Z) =      0.00165205
@ B-freq = 0.016470  C-freq = 0.000000     beta(Z;Z,Z) =    -31.18261467
@ B-freq = 0.032941  C-freq = 0.000000     beta(X;Z,Z) =      0.00199541
@ B-freq = 0.032941  C-freq = 0.000000     beta(Y;Z,Z) =      0.00160977
@ B-freq = 0.032941  C-freq = 0.000000     beta(Z;Z,Z) =    -31.75308776
@ B-freq = 0.049411  C-freq = 0.000000     beta(X;Z,Z) =      0.00195960
@ B-freq = 0.049411  C-freq = 0.000000     beta(Y;Z,Z) =      0.00152340
@ B-freq = 0.049411  C-freq = 0.000000     beta(Z;Z,Z) =    -32.74037900
@ B-freq = 0.065882  C-freq = 0.000000     beta(X;Z,Z) =      0.00190011
@ B-freq = 0.065882  C-freq = 0.000000     beta(Y;Z,Z) =      0.00136245
@ B-freq = 0.065882  C-freq = 0.000000     beta(Z;Z,Z) =    -34.20443875
@ B-freq = 0.000000  C-freq = 0.016470     beta(X;X,Z) = beta(X,Z,X)
@ B-freq = 0.000000  C-freq = 0.016470     beta(Y;X,Z) = beta(Y,Z,X)
@ B-freq = 0.000000  C-freq = 0.016470     beta(Z;X,Z) = beta(Z,Z,X)
@ B-freq = 0.016470  C-freq = 0.016470     beta(X;X,Z) = beta(X,Z,X)
@ B-freq = 0.016470  C-freq = 0.016470     beta(Y;X,Z) = beta(Y,Z,X)
@ B-freq = 0.016470  C-freq = 0.016470     beta(Z;X,Z) = beta(Z,Z,X)
@ B-freq = 0.032941  C-freq = 0.016470     beta(X;X,Z) = beta(X,Z,X)
@ B-freq = 0.032941  C-freq = 0.016470     beta(Y;X,Z) = beta(Y,Z,X)
@ B-freq = 0.032941  C-freq = 0.016470     beta(Z;X,Z) = beta(Z,Z,X)
@ B-freq = 0.049411  C-freq = 0.016470     beta(X;X,Z) = beta(X,Z,X)
@ B-freq = 0.049411  C-freq = 0.016470     beta(Y;X,Z) = beta(Y,Z,X)
@ B-freq = 0.049411  C-freq = 0.016470     beta(Z;X,Z) = beta(Z,Z,X)
@ B-freq = 0.065882  C-freq = 0.016470     beta(X;X,Z) = beta(X,Z,X)
@ B-freq = 0.065882  C-freq = 0.016470     beta(Y;X,Z) = beta(Y,Z,X)
@ B-freq = 0.065882  C-freq = 0.016470     beta(Z;X,Z) = beta(Z,Z,X)
@ B-freq = 0.000000  C-freq = 0.016470     beta(X;Y,Z) = beta(X,Z,Y)
@ B-freq = 0.000000  C-freq = 0.016470     beta(Y;Y,Z) = beta(Y,Z,Y)
@ B-freq = 0.000000  C-freq = 0.016470     beta(Z;Y,Z) = beta(Z,Z,Y)
@ B-freq = 0.016470  C-freq = 0.016470     beta(X;Y,Z) = beta(X,Z,Y)
@ B-freq = 0.016470  C-freq = 0.016470     beta(Y;Y,Z) = beta(Y,Z,Y)
@ B-freq = 0.016470  C-freq = 0.016470     beta(Z;Y,Z) = beta(Z,Z,Y)
@ B-freq = 0.032941  C-freq = 0.016470     beta(X;Y,Z) = beta(X,Z,Y)
@ B-freq = 0.032941  C-freq = 0.016470     beta(Y;Y,Z) = beta(Y,Z,Y)
@ B-freq = 0.032941  C-freq = 0.016470     beta(Z;Y,Z) = beta(Z,Z,Y)
@ B-freq = 0.049411  C-freq = 0.016470     beta(X;Y,Z) = beta(X,Z,Y)
@ B-freq = 0.049411  C-freq = 0.016470     beta(Y;Y,Z) = beta(Y,Z,Y)
@ B-freq = 0.049411  C-freq = 0.016470     beta(Z;Y,Z) = beta(Z,Z,Y)
@ B-freq = 0.065882  C-freq = 0.016470     beta(X;Y,Z) = beta(X,Z,Y)
@ B-freq = 0.065882  C-freq = 0.016470     beta(Y;Y,Z) = beta(Y,Z,Y)
@ B-freq = 0.065882  C-freq = 0.016470     beta(Z;Y,Z) = beta(Z,Z,Y)
@ B-freq = 0.000000  C-freq = 0.016470     beta(X;Z,Z) = beta(X,Z,Z)
@ B-freq = 0.000000  C-freq = 0.016470     beta(Y;Z,Z) = beta(Y,Z,Z)
@ B-freq = 0.000000  C-freq = 0.016470     beta(Z;Z,Z) = beta(Z,Z,Z)
@ B-freq = 0.016470  C-freq = 0.016470     beta(X;Z,Z) =      0.00199775
@ B-freq = 0.016470  C-freq = 0.016470     beta(Y;Z,Z) =      0.00160226
@ B-freq = 0.016470  C-freq = 0.016470     beta(Z;Z,Z) =    -31.56115443
@ B-freq = 0.032941  C-freq = 0.016470     beta(X;Z,Z) =      0.00196258
@ B-freq = 0.032941  C-freq = 0.016470     beta(Y;Z,Z) =      0.00150790
@ B-freq = 0.032941  C-freq = 0.016470     beta(Z;Z,Z) =    -32.33986842
@ B-freq = 0.049411  C-freq = 0.016470     beta(X;Z,Z) =      0.00190041
@ B-freq = 0.049411  C-freq = 0.016470     beta(Y;Z,Z) =      0.00133857
@ B-freq = 0.049411  C-freq = 0.016470     beta(Z;Z,Z) =    -33.56492860
@ B-freq = 0.065882  C-freq = 0.016470     beta(X;Z,Z) =      0.00179713
@ B-freq = 0.065882  C-freq = 0.016470     beta(Y;Z,Z) =      0.00103591
@ B-freq = 0.065882  C-freq = 0.016470     beta(Z;Z,Z) =    -35.31357250
@ B-freq = 0.000000  C-freq = 0.032941     beta(X;X,Z) = beta(X,Z,X)
@ B-freq = 0.000000  C-freq = 0.032941     beta(Y;X,Z) = beta(Y,Z,X)
@ B-freq = 0.000000  C-freq = 0.032941     beta(Z;X,Z) = beta(Z,Z,X)
@ B-freq = 0.016470  C-freq = 0.032941     beta(X;X,Z) = beta(X,Z,X)
@ B-freq = 0.016470  C-freq = 0.032941     beta(Y;X,Z) = beta(Y,Z,X)
@ B-freq = 0.016470  C-freq = 0.032941     beta(Z;X,Z) = beta(Z,Z,X)
@ B-freq = 0.032941  C-freq = 0.032941     beta(X;X,Z) = beta(X,Z,X)
@ B-freq = 0.032941  C-freq = 0.032941     beta(Y;X,Z) = beta(Y,Z,X)
@ B-freq = 0.032941  C-freq = 0.032941     beta(Z;X,Z) = beta(Z,Z,X)
@ B-freq = 0.049411  C-freq = 0.032941     beta(X;X,Z) = beta(X,Z,X)
@ B-freq = 0.049411  C-freq = 0.032941     beta(Y;X,Z) = beta(Y,Z,X)
@ B-freq = 0.049411  C-freq = 0.032941     beta(Z;X,Z) = beta(Z,Z,X)
@ B-freq = 0.065882  C-freq = 0.032941     beta(X;X,Z) = beta(X,Z,X)
@ B-freq = 0.065882  C-freq = 0.032941     beta(Y;X,Z) = beta(Y,Z,X)
@ B-freq = 0.065882  C-freq = 0.032941     beta(Z;X,Z) = beta(Z,Z,X)
@ B-freq = 0.000000  C-freq = 0.032941     beta(X;Y,Z) = beta(X,Z,Y)
@ B-freq = 0.000000  C-freq = 0.032941     beta(Y;Y,Z) = beta(Y,Z,Y)
@ B-freq = 0.000000  C-freq = 0.032941     beta(Z;Y,Z) = beta(Z,Z,Y)
@ B-freq = 0.016470  C-freq = 0.032941     beta(X;Y,Z) = beta(X,Z,Y)
@ B-freq = 0.016470  C-freq = 0.032941     beta(Y;Y,Z) = beta(Y,Z,Y)
@ B-freq = 0.016470  C-freq = 0.032941     beta(Z;Y,Z) = beta(Z,Z,Y)
@ B-freq = 0.032941  C-freq = 0.032941     beta(X;Y,Z) = beta(X,Z,Y)
@ B-freq = 0.032941  C-freq = 0.032941     beta(Y;Y,Z) = beta(Y,Z,Y)
@ B-freq = 0.032941  C-freq = 0.032941     beta(Z;Y,Z) = beta(Z,Z,Y)
@ B-freq = 0.049411  C-freq = 0.032941     beta(X;Y,Z) = beta(X,Z,Y)
@ B-freq = 0.049411  C-freq = 0.032941     beta(Y;Y,Z) = beta(Y,Z,Y)
@ B-freq = 0.049411  C-freq = 0.032941     beta(Z;Y,Z) = beta(Z,Z,Y)
@ B-freq = 0.065882  C-freq = 0.032941     beta(X;Y,Z) = beta(X,Z,Y)
@ B-freq = 0.065882  C-freq = 0.032941     beta(Y;Y,Z) = beta(Y,Z,Y)
@ B-freq = 0.065882  C-freq = 0.032941     beta(Z;Y,Z) = beta(Z,Z,Y)
@ B-freq = 0.000000  C-freq = 0.032941     beta(X;Z,Z) = beta(X,Z,Z)
@ B-freq = 0.000000  C-freq = 0.032941     beta(Y;Z,Z) = beta(Y,Z,Z)
@ B-freq = 0.000000  C-freq = 0.032941     beta(Z;Z,Z) = beta(Z,Z,Z)
@ B-freq = 0.016470  C-freq = 0.032941     beta(X;Z,Z) = beta(X,Z,Z)
@ B-freq = 0.016470  C-freq = 0.032941     beta(Y;Z,Z) = beta(Y,Z,Z)
@ B-freq = 0.016470  C-freq = 0.032941     beta(Z;Z,Z) = beta(Z,Z,Z)
@ B-freq = 0.032941  C-freq = 0.032941     beta(X;Z,Z) =      0.00190060
@ B-freq = 0.032941  C-freq = 0.032941     beta(Y;Z,Z) =      0.00133072
@ B-freq = 0.032941  C-freq = 0.032941     beta(Z;Z,Z) =    -33.35590986
@ B-freq = 0.049411  C-freq = 0.032941     beta(X;Z,Z) =      0.00179350
@ B-freq = 0.049411  C-freq = 0.032941     beta(Y;Z,Z) =      0.00102058
@ B-freq = 0.049411  C-freq = 0.032941     beta(Z;Z,Z) =    -34.86385107
@ B-freq = 0.065882  C-freq = 0.032941     beta(X;Z,Z) =      0.00161499
@ B-freq = 0.065882  C-freq = 0.032941     beta(Y;Z,Z) =      0.00046795
@ B-freq = 0.065882  C-freq = 0.032941     beta(Z;Z,Z) =    -36.96391834
@ B-freq = 0.000000  C-freq = 0.049411     beta(X;X,Z) = beta(X,Z,X)
@ B-freq = 0.000000  C-freq = 0.049411     beta(Y;X,Z) = beta(Y,Z,X)
@ B-freq = 0.000000  C-freq = 0.049411     beta(Z;X,Z) = beta(Z,Z,X)
@ B-freq = 0.016470  C-freq = 0.049411     beta(X;X,Z) = beta(X,Z,X)
@ B-freq = 0.016470  C-freq = 0.049411     beta(Y;X,Z) = beta(Y,Z,X)
@ B-freq = 0.016470  C-freq = 0.049411     beta(Z;X,Z) = beta(Z,Z,X)
@ B-freq = 0.032941  C-freq = 0.049411     beta(X;X,Z) = beta(X,Z,X)
@ B-freq = 0.032941  C-freq = 0.049411     beta(Y;X,Z) = beta(Y,Z,X)
@ B-freq = 0.032941  C-freq = 0.049411     beta(Z;X,Z) = beta(Z,Z,X)
@ B-freq = 0.049411  C-freq = 0.049411     beta(X;X,Z) = beta(X,Z,X)
@ B-freq = 0.049411  C-freq = 0.049411     beta(Y;X,Z) = beta(Y,Z,X)
@ B-freq = 0.049411  C-freq = 0.049411     beta(Z;X,Z) = beta(Z,Z,X)
@ B-freq = 0.065882  C-freq = 0.049411     beta(X;X,Z) = beta(X,Z,X)
@ B-freq = 0.065882  C-freq = 0.049411     beta(Y;X,Z) = beta(Y,Z,X)
@ B-freq = 0.065882  C-freq = 0.049411     beta(Z;X,Z) = beta(Z,Z,X)
@ B-freq = 0.000000  C-freq = 0.049411     beta(X;Y,Z) = beta(X,Z,Y)
@ B-freq = 0.000000  C-freq = 0.049411     beta(Y;Y,Z) = beta(Y,Z,Y)
@ B-freq = 0.000000  C-freq = 0.049411     beta(Z;Y,Z) = beta(Z,Z,Y)
@ B-freq = 0.016470  C-freq = 0.049411     beta(X;Y,Z) = beta(X,Z,Y)
@ B-freq = 0.016470  C-freq = 0.049411     beta(Y;Y,Z) = beta(Y,Z,Y)
@ B-freq = 0.016470  C-freq = 0.049411     beta(Z;Y,Z) = beta(Z,Z,Y)
@ B-freq = 0.032941  C-freq = 0.049411     beta(X;Y,Z) = beta(X,Z,Y)
@ B-freq = 0.032941  C-freq = 0.049411     beta(Y;Y,Z) = beta(Y,Z,Y)
@ B-freq = 0.032941  C-freq = 0.049411     beta(Z;Y,Z) = beta(Z,Z,Y)
@ B-freq = 0.049411  C-freq = 0.049411     beta(X;Y,Z) = beta(X,Z,Y)
@ B-freq = 0.049411  C-freq = 0.049411     beta(Y;Y,Z) = beta(Y,Z,Y)
@ B-freq = 0.049411  C-freq = 0.049411     beta(Z;Y,Z) = beta(Z,Z,Y)
@ B-freq = 0.065882  C-freq = 0.049411     beta(X;Y,Z) = beta(X,Z,Y)
@ B-freq = 0.065882  C-freq = 0.049411     beta(Y;Y,Z) = beta(Y,Z,Y)
@ B-freq = 0.065882  C-freq = 0.049411     beta(Z;Y,Z) = beta(Z,Z,Y)
@ B-freq = 0.000000  C-freq = 0.049411     beta(X;Z,Z) = beta(X,Z,Z)
@ B-freq = 0.000000  C-freq = 0.049411     beta(Y;Z,Z) = beta(Y,Z,Z)
@ B-freq = 0.000000  C-freq = 0.049411     beta(Z;Z,Z) = beta(Z,Z,Z)
@ B-freq = 0.016470  C-freq = 0.049411     beta(X;Z,Z) = beta(X,Z,Z)
@ B-freq = 0.016470  C-freq = 0.049411     beta(Y;Z,Z) = beta(Y,Z,Z)
@ B-freq = 0.016470  C-freq = 0.049411     beta(Z;Z,Z) = beta(Z,Z,Z)
@ B-freq = 0.032941  C-freq = 0.049411     beta(X;Z,Z) = beta(X,Z,Z)
@ B-freq = 0.032941  C-freq = 0.049411     beta(Y;Z,Z) = beta(Y,Z,Z)
@ B-freq = 0.032941  C-freq = 0.049411     beta(Z;Z,Z) = beta(Z,Z,Z)
@ B-freq = 0.049411  C-freq = 0.049411     beta(X;Z,Z) =      0.00161041
@ B-freq = 0.049411  C-freq = 0.049411     beta(Y;Z,Z) =      0.00046151
@ B-freq = 0.049411  C-freq = 0.049411     beta(Z;Z,Z) =    -36.72171041
@ B-freq = 0.065882  C-freq = 0.049411     beta(X;Z,Z) =      0.00130339
@ B-freq = 0.065882  C-freq = 0.049411     beta(Y;Z,Z) =     -0.00054647
@ B-freq = 0.065882  C-freq = 0.049411     beta(Z;Z,Z) =    -39.27096624
@ B-freq = 0.000000  C-freq = 0.065882     beta(X;X,Z) = beta(X,Z,X)
@ B-freq = 0.000000  C-freq = 0.065882     beta(Y;X,Z) = beta(Y,Z,X)
@ B-freq = 0.000000  C-freq = 0.065882     beta(Z;X,Z) = beta(Z,Z,X)
@ B-freq = 0.016470  C-freq = 0.065882     beta(X;X,Z) = beta(X,Z,X)
@ B-freq = 0.016470  C-freq = 0.065882     beta(Y;X,Z) = beta(Y,Z,X)
@ B-freq = 0.016470  C-freq = 0.065882     beta(Z;X,Z) = beta(Z,Z,X)
@ B-freq = 0.032941  C-freq = 0.065882     beta(X;X,Z) = beta(X,Z,X)
@ B-freq = 0.032941  C-freq = 0.065882     beta(Y;X,Z) = beta(Y,Z,X)
@ B-freq = 0.032941  C-freq = 0.065882     beta(Z;X,Z) = beta(Z,Z,X)
@ B-freq = 0.049411  C-freq = 0.065882     beta(X;X,Z) = beta(X,Z,X)
@ B-freq = 0.049411  C-freq = 0.065882     beta(Y;X,Z) = beta(Y,Z,X)
@ B-freq = 0.049411  C-freq = 0.065882     beta(Z;X,Z) = beta(Z,Z,X)
@ B-freq = 0.065882  C-freq = 0.065882     beta(X;X,Z) = beta(X,Z,X)
@ B-freq = 0.065882  C-freq = 0.065882     beta(Y;X,Z) = beta(Y,Z,X)
@ B-freq = 0.065882  C-freq = 0.065882     beta(Z;X,Z) = beta(Z,Z,X)
@ B-freq = 0.000000  C-freq = 0.065882     beta(X;Y,Z) = beta(X,Z,Y)
@ B-freq = 0.000000  C-freq = 0.065882     beta(Y;Y,Z) = beta(Y,Z,Y)
@ B-freq = 0.000000  C-freq = 0.065882     beta(Z;Y,Z) = beta(Z,Z,Y)
@ B-freq = 0.016470  C-freq = 0.065882     beta(X;Y,Z) = beta(X,Z,Y)
@ B-freq = 0.016470  C-freq = 0.065882     beta(Y;Y,Z) = beta(Y,Z,Y)
@ B-freq = 0.016470  C-freq = 0.065882     beta(Z;Y,Z) = beta(Z,Z,Y)
@ B-freq = 0.032941  C-freq = 0.065882     beta(X;Y,Z) = beta(X,Z,Y)
@ B-freq = 0.032941  C-freq = 0.065882     beta(Y;Y,Z) = beta(Y,Z,Y)
@ B-freq = 0.032941  C-freq = 0.065882     beta(Z;Y,Z) = beta(Z,Z,Y)
@ B-freq = 0.049411  C-freq = 0.065882     beta(X;Y,Z) = beta(X,Z,Y)
@ B-freq = 0.049411  C-freq = 0.065882     beta(Y;Y,Z) = beta(Y,Z,Y)
@ B-freq = 0.049411  C-freq = 0.065882     beta(Z;Y,Z) = beta(Z,Z,Y)
@ B-freq = 0.065882  C-freq = 0.065882     beta(X;Y,Z) = beta(X,Z,Y)
@ B-freq = 0.065882  C-freq = 0.065882     beta(Y;Y,Z) = beta(Y,Z,Y)
@ B-freq = 0.065882  C-freq = 0.065882     beta(Z;Y,Z) = beta(Z,Z,Y)
@ B-freq = 0.000000  C-freq = 0.065882     beta(X;Z,Z) = beta(X,Z,Z)
@ B-freq = 0.000000  C-freq = 0.065882     beta(Y;Z,Z) = beta(Y,Z,Z)
@ B-freq = 0.000000  C-freq = 0.065882     beta(Z;Z,Z) = beta(Z,Z,Z)
@ B-freq = 0.016470  C-freq = 0.065882     beta(X;Z,Z) = beta(X,Z,Z)
@ B-freq = 0.016470  C-freq = 0.065882     beta(Y;Z,Z) = beta(Y,Z,Z)
@ B-freq = 0.016470  C-freq = 0.065882     beta(Z;Z,Z) = beta(Z,Z,Z)
@ B-freq = 0.032941  C-freq = 0.065882     beta(X;Z,Z) = beta(X,Z,Z)
@ B-freq = 0.032941  C-freq = 0.065882     beta(Y;Z,Z) = beta(Y,Z,Z)
@ B-freq = 0.032941  C-freq = 0.065882     beta(Z;Z,Z) = beta(Z,Z,Z)
@ B-freq = 0.049411  C-freq = 0.065882     beta(X;Z,Z) = beta(X,Z,Z)
@ B-freq = 0.049411  C-freq = 0.065882     beta(Y;Z,Z) = beta(Y,Z,Z)
@ B-freq = 0.049411  C-freq = 0.065882     beta(Z;Z,Z) = beta(Z,Z,Z)
@ B-freq = 0.065882  C-freq = 0.065882     beta(X;Z,Z) =      0.00077503
@ B-freq = 0.065882  C-freq = 0.065882     beta(Y;Z,Z) =     -0.00241273
@ B-freq = 0.065882  C-freq = 0.065882     beta(Z;Z,Z) =    -42.41482691

  Total CPU  time used in RESPONSE: 10 minutes  0 seconds
  Total wall time used in RESPONSE: 10 minutes  4 seconds


                   .-------------------------------------------.
                   | End of Dynamic Property Section (RESPONS) |
                   `-------------------------------------------'

  Total CPU  time used in DALTON: 10 minutes 34 seconds
  Total wall time used in DALTON: 10 minutes 38 seconds

 
     Date and time (Linux)  : Tue Jul 23 16:28:31 2024
     Host name              : dn012                                   
