

     ************************************************************************
     *************** Dalton - An Electronic Structure Program ***************
     ************************************************************************

    This is output from DALTON release Dalton2020.0 (2020)
         ( Web site: http://daltonprogram.org )

   ----------------------------------------------------------------------------

    NOTE:
     
    Dalton is an experimental code for the evaluation of molecular
    properties using (MC)SCF, DFT, CI, and CC wave functions.
    The authors accept no responsibility for the performance of
    the code or for the correctness of the results.
     
    The code (in whole or part) is provided under a licence and
    is not to be reproduced for further distribution without
    the written permission of the authors or their representatives.
     
    See the home page "http://daltonprogram.org" for further information.
     
    If results obtained with this code are published,
    the appropriate citations would be both of:
     
       K. Aidas, C. Angeli, K. L. Bak, V. Bakken, R. Bast,
       L. Boman, O. Christiansen, R. Cimiraglia, S. Coriani,
       P. Dahle, E. K. Dalskov, U. Ekstroem,
       T. Enevoldsen, J. J. Eriksen, P. Ettenhuber, B. Fernandez,
       L. Ferrighi, H. Fliegl, L. Frediani, K. Hald, A. Halkier,
       C. Haettig, H. Heiberg, T. Helgaker, A. C. Hennum,
       H. Hettema, E. Hjertenaes, S. Hoest, I.-M. Hoeyvik,
       M. F. Iozzi, B. Jansik, H. J. Aa. Jensen, D. Jonsson,
       P. Joergensen, J. Kauczor, S. Kirpekar,
       T. Kjaergaard, W. Klopper, S. Knecht, R. Kobayashi, H. Koch,
       J. Kongsted, A. Krapp, K. Kristensen, A. Ligabue,
       O. B. Lutnaes, J. I. Melo, K. V. Mikkelsen, R. H. Myhre,
       C. Neiss, C. B. Nielsen, P. Norman, J. Olsen,
       J. M. H. Olsen, A. Osted, M. J. Packer, F. Pawlowski,
       T. B. Pedersen, P. F. Provasi, S. Reine, Z. Rinkevicius,
       T. A. Ruden, K. Ruud, V. Rybkin, P. Salek, C. C. M. Samson,
       A. Sanchez de Meras, T. Saue, S. P. A. Sauer,
       B. Schimmelpfennig, K. Sneskov, A. H. Steindal,
       K. O. Sylvester-Hvid, P. R. Taylor, A. M. Teale,
       E. I. Tellgren, D. P. Tew, A. J. Thorvaldsen, L. Thoegersen,
       O. Vahtras, M. A. Watson, D. J. D. Wilson, M. Ziolkowski
       and H. Agren,
       "The Dalton quantum chemistry program system",
       WIREs Comput. Mol. Sci. 2014, 4:269–284 (doi: 10.1002/wcms.1172)
     
    and
     
       Dalton, a molecular electronic structure program,
       Release Dalton2020.0 (2020), see http://daltonprogram.org
   ----------------------------------------------------------------------------

    Authors in alphabetical order (Major contribution(s) in parenthesis):

  Kestutis Aidas,           Vilnius University,           Lithuania   (QM/MM)
  Celestino Angeli,         University of Ferrara,        Italy       (NEVPT2)
  Keld L. Bak,              UNI-C,                        Denmark     (AOSOPPA, non-adiabatic coupling, magnetic properties)
  Vebjoern Bakken,          University of Oslo,           Norway      (DALTON; geometry optimizer, symmetry detection)
  Radovan Bast,             UiT The Arctic U. of Norway,  Norway      (DALTON installation and execution frameworks)
  Pablo Baudin,             University of Valencia,       Spain       (Cholesky excitation energies)
  Linus Boman,              NTNU,                         Norway      (Cholesky decomposition and subsystems)
  Bruno N. Cabral Tenorio,  Technical Univ. of Denmark,   Denmark     (Lanczos-based CC methods)
  Ove Christiansen,         Aarhus University,            Denmark     (CC module)
  Renzo Cimiraglia,         University of Ferrara,        Italy       (NEVPT2)
  Sonia Coriani,            Technical Univ. of Denmark,   Denmark     (CC and RESPONS modules)
  Janusz Cukras,            University of Warsaw,         Poland      (MChD in RESPONS)
  Paal Dahle,               University of Oslo,           Norway      (Parallelization)
  Erik K. Dalskov,          UNI-C,                        Denmark     (SOPPA)
  Thomas Enevoldsen,        Univ. of Southern Denmark,    Denmark     (SOPPA)
  Janus J. Eriksen,         Aarhus University,            Denmark     (Polarizable embedding, TDA)
  Rasmus Faber,             Technical Univ. of Denmark,   Denmark     (Vib.avg. NMR w. SOPPA, parallel AO-SOPPA, CVS-CC and EOMCC)
  Tobias Fahleson,          KTH Stockholm,                Sweden      (Damped cubic response)
  Berta Fernandez,          U. of Santiago de Compostela, Spain       (Doublet spin, ESR in RESPONS)
  Lara Ferrighi,            Aarhus University,            Denmark     (PCM Cubic response)
  Heike Fliegl,             University of Oslo,           Norway      (CCSD(R12))
  Luca Frediani,            UiT The Arctic U. of Norway,  Norway      (PCM)
  Emmanuel Fromager,        Univ. Strasbourg,             France      (MC-srDFT)
  Bin Gao,                  UiT The Arctic U. of Norway,  Norway      (Gen1Int library)
  Andre S. P. Gomes,        CNRS/Universite de Lille,     France      (Frozen density embedding)
  Christof Haettig,         Ruhr-University Bochum,       Germany     (CC module)
  Kasper Hald,              Aarhus University,            Denmark     (CC module)
  Asger Halkier,            Aarhus University,            Denmark     (CC module)
  Frederik Beyer Hansen,    University of Copenhagen,     Denmark     (Parallel AO-SOPPA)
  Erik D. Hedegaard,        Univ. of Southern Denmark,    Denmark     (Polarizable embedding, QM/MM, and MC-srDFT)
  Hanne Heiberg,            University of Oslo,           Norway      (Geometry analysis, selected one-electron integrals)
  Trygve Helgaker,          University of Oslo,           Norway      (DALTON; ABACUS, ERI, DFT modules, London, and much more)
  Alf Christian Hennum,     University of Oslo,           Norway      (Parity violation)
  Hinne Hettema,            University of Auckland,       New Zealand (Quadratic response in RESPONS; SIRIUS supersymmetry)
  Eirik Hjertenaes,         NTNU,                         Norway      (Cholesky decomposition)
  Pi A. B. Haase,           University of Copenhagen,     Denmark     (Triplet AO-SOPPA)
  Maria Francesca Iozzi,    University of Oslo,           Norway      (RPA)
  Christoph Jacob           TU Braunschweig               Germany     (Frozen density embedding)
  Brano Jansik              Technical Univ. of Ostrava    Czech Rep.  (DFT cubic response)
  Hans Joergen Aa. Jensen,  Univ. of Southern Denmark,    Denmark     (DALTON; SIRIUS, RESPONS, ABACUS, MC-srDFT, and much more)
  Dan Jonsson,              UiT The Arctic U. of Norway,  Norway      (Cubic response in RESPONS module)
  Poul Joergensen,          Aarhus University,            Denmark     (RESPONS, ABACUS, and CC modules)
  Maciej Kaminski,          University of Warsaw,         Poland      (CPPh in RESPONS)
  Joanna Kauczor,           Linkoeping University,        Sweden      (Complex polarization propagator (CPP) module)
  Sheela Kirpekar,          Univ. of Southern Denmark,    Denmark     (Mass-velocity & Darwin integrals)
  Erik Kjellgren,           Univ. of Southern Denmark,    Denmark     (MC-srDFT)
  Wim Klopper,              KIT Karlsruhe,                Germany     (R12 code in CC, SIRIUS, and ABACUS modules)
  Stefan Knecht,            ETH Zurich,                   Switzerland (Parallel CI and MCSCF, MC-srDFT)
  Rika Kobayashi,           Australian National Univ.,    Australia   (DIIS in CC, London in MCSCF)
  Henrik Koch,              NTNU,                         Norway      (CC module, Cholesky decomposition)
  Jacob Kongsted,           Univ. of Southern Denmark,    Denmark     (Polarizable embedding, polarizable density embedding, QM/MM)
  Andrea Ligabue,           University of Modena,         Italy       (CTOCD, AOSOPPA)
  Nanna H. List             Univ. of Southern Denmark,    Denmark     (Polarizable embedding)
  Ola B. Lutnaes,           University of Oslo,           Norway      (DFT Hessian)
  Juan I. Melo,             University of Buenos Aires,   Argentina   (LRESC, Relativistic Effects on NMR Shieldings)
  Kurt V. Mikkelsen,        University of Copenhagen,     Denmark     (MC-SCRF and QM/MM)
  Rolf H. Myhre,            NTNU,                         Norway      (Subsystems and CC3)
  Christian Neiss,          Univ. Erlangen-Nuernberg,     Germany     (CCSD(R12))
  Christian B. Nielsen,     University of Copenhagen,     Denmark     (QM/MM)
  Patrick Norman,           KTH Stockholm,                Sweden      (Cubic response and complex frequency response in RESPONS)
  Jeppe Olsen,              Aarhus University,            Denmark     (SIRIUS CI/density modules)
  Jogvan Magnus H. Olsen,   Aarhus University,            Denmark     (Polarizable embedding and polarizable density embedding)
  Anders Osted,             Copenhagen University,        Denmark     (QM/MM)
  Martin J. Packer,         University of Sheffield,      UK          (SOPPA)
  Filip Pawlowski,          Kazimierz Wielki University,  Poland      (CC3)
  Morten N. Pedersen,       Univ. of Southern Denmark,    Denmark     (Polarizable embedding)
  Thomas B. Pedersen,       University of Oslo,           Norway      (Cholesky decomposition)
  Patricio F. Provasi,      University of Northeastern,   Argentina   (Analysis of coupling constants in localized orbitals)
  Peter Reinholdt,          Univ. of Southern Denmark,    Denmark     (Polarizable embedding and polarizable density embedding)
  Zilvinas Rinkevicius,     KTH Stockholm,                Sweden      (open-shell DFT, ESR)
  Elias Rudberg,            KTH Stockholm,                Sweden      (DFT grid and basis info)
  Torgeir A. Ruden,         University of Oslo,           Norway      (Numerical derivatives in ABACUS)
  Kenneth Ruud,             UiT The Arctic U. of Norway,  Norway      (DALTON; ABACUS magnetic properties and much more)
  Pawel Salek,              KTH Stockholm,                Sweden      (DALTON; DFT code)
  Claire C. M. Samson       University of Karlsruhe       Germany     (Boys localization, r12 integrals in ERI)
  Alfredo Sanchez de Meras, University of Valencia,       Spain       (CC module, Cholesky decomposition)
  Trond Saue,               Paul Sabatier University,     France      (direct Fock matrix construction)
  Stephan P. A. Sauer,      University of Copenhagen,     Denmark     (SOPPA(CCSD), SOPPA prop., AOSOPPA, vibrational g-factors)
  Bernd Schimmelpfennig,    Forschungszentrum Karlsruhe,  Germany     (AMFI module)
  Anna K. Schnack-Petersen, University of Copenhagen,     Denmark     (RPA(D) and HRPA(D) properties in AOSOPPA)
  Kristian Sneskov,         Aarhus University,            Denmark     (Polarizable embedding, QM/MM)
  Arnfinn H. Steindal,      UiT The Arctic U. of Norway,  Norway      (parallel QM/MM, polarizable embedding)
  Casper Steinmann,         Aalborg University,           Denmark     (QFIT, polarizable embedding)
  K. O. Sylvester-Hvid,     University of Copenhagen,     Denmark     (MC-SCRF)
  Peter R. Taylor,          VLSCI/Univ. of Melbourne,     Australia   (Symmetry handling ABACUS, integral transformation)
  Andrew M. Teale,          University of Nottingham,     England     (DFT-AC, DFT-D)
  David P. Tew,             University of Bristol,        England     (CCSD(R12))
  Julien Toulouse,          Sorbonne Univ.,               France      (MC-srDFT)
  Olav Vahtras,             KTH Stockholm,                Sweden      (Triplet response, spin-orbit, ESR, TDDFT, open-shell DFT)
  Lucas Visscher,           Vrije Universiteit Amsterdam, Netherlands (Frozen density embedding)
  David J. Wilson,          La Trobe University,          Australia   (DFT Hessian and DFT magnetizabilities)
  Hans Agren,               KTH Stockholm,                Sweden      (SIRIUS module, RESPONS, MC-SCRF solvation)
 --------------------------------------------------------------------------------

     Date and time (Linux)  : Fri Sep 29 09:11:19 2023
     Host name              : sn-mem                                  

 * Work memory size             :    64000000 =  488.28 megabytes.

 * Directories for basis set searches:
   1) /gpfs/projects/rjh/adrian/august_no_symmetry/dalton/hf/PH3/dipole
   2) /gpfs/projects/rjh/adrian/dalton/build/basis


Compilation information
-----------------------

 Who compiled             | ahurtado
 Host                     | sn-mem
 System                   | Linux-3.10.0-1160.24.1.el7.x86_64
 CMake generator          | Unix Makefiles
 Processor                | x86_64
 64-bit integers          | OFF
 MPI                      | ON
 Fortran compiler         | /gpfs/software/intel/oneAPI/2021_4/mpi/2021.4.0/bi
                          | n/mpif90
 Fortran compiler version | GNU Fortran (GCC) 11.2.0
 C compiler               | /gpfs/software/intel/oneAPI/2021_4/mpi/2021.4.0/bi
                          | n/mpicc
 C compiler version       | gcc (GCC) 11.2.0
 C++ compiler             | /gpfs/software/intel/oneAPI/2021_4/mpi/2021.4.0/bi
                          | n/mpicxx
 C++ compiler version     | unknown
 BLAS                     | /gpfs/software/intel/oneAPI/2021_4/mkl/2021.4.0/li
                          | b/intel64/libmkl_gf_lp64.so;/gpfs/software/intel/o
                          | neAPI/2021_4/mkl/2021.4.0/lib/intel64/libmkl_seque
                          | ntial.so;/gpfs/software/intel/oneAPI/2021_4/mkl/20
                          | 21.4.0/lib/intel64/libmkl_core.so;/usr/lib64/libpt
                          | hread.so;/usr/lib64/libm.so
 LAPACK                   | /gpfs/software/intel/oneAPI/2021_4/mkl/2021.4.0/li
                          | b/intel64/libmkl_lapack95_lp64.a;/gpfs/software/in
                          | tel/oneAPI/2021_4/mkl/2021.4.0/lib/intel64/libmkl_
                          | gf_lp64.so
 Static linking           | OFF
 Last Git revision        | 66052b3af5ea7225e31178bf9a8b031913c72190
 Git branch               | (HEAD detached at Dalton2020.0)
 Configuration time       | 2023-01-11 13:33:37.731835

 * MPI parallel run using 5 processes.


   Content of the .dal input file
 ----------------------------------

**DALTON INPUT
.RUN RESPONSE
.DIRECT
**WAVE FUNCTIONS
.HF
**PROPERTIES
**RESPONSE
*QUADRA
.DIPLEN
.FREQUENCIES
5
0.0 0.0164705 0.032941 0.0494115 0.065882
**END OF DALTON INPUT


   Content of the .mol file
 ----------------------------

BASIS
aug-cc-pCVDZ
blah
blah
Atomtype=2 Angstrom Charge=0 Nosymmmetry
Charge=15 Atoms=1
P_a 0.000000000000 0.000000000000 0.000000000000
Charge=1 Atoms=3
H_a 0.000000000000 -1.193199998467 -0.771699999462
H_b 1.033300002415 0.596600001880 -0.771699999462
H_c -1.033300002415 0.596600001880 -0.771699999462


       *******************************************************************
       *********** Output from DALTON general input processing ***********
       *******************************************************************

 --------------------------------------------------------------------------------
   Overall default print level:    0
   Print level for DALTON.STAT:    1

    Parallel calculation using MPI
    AO-direct calculation (in sections where implemented)
    HERMIT 1- and 2-electron integral sections will be executed
    "Old" integral transformation used (limited to max 255 basis functions)
    Wave function sections will be executed (SIRIUS module)
    Dynamic molecular response properties section will be executed (RESPONSE module)
 --------------------------------------------------------------------------------


   ****************************************************************************
   *************** Output of molecule and basis set information ***************
   ****************************************************************************


    The two title cards from your ".mol" input:
    ------------------------------------------------------------------------
 1: blah                                                                    
 2: blah                                                                    
    ------------------------------------------------------------------------

  Coordinates are entered in Angstrom and converted to atomic units.
          - Conversion factor : 1 bohr = 0.52917721 A

  Atomic type no.    1
  --------------------
  Nuclear charge:  15.00000
  Number of symmetry independent centers:    1
  Number of basis sets to read;    2
  Basis set file used for this atomic type with Z =  15 :
     "/gpfs/projects/rjh/adrian/dalton/build/basis/aug-cc-pCVDZ"

  Atomic type no.    2
  --------------------
  Nuclear charge:   1.00000
  Number of symmetry independent centers:    3
  Number of basis sets to read;    2
  Basis set file used for this atomic type with Z =   1 :
     "/gpfs/projects/rjh/adrian/dalton/build/basis/aug-cc-pCVDZ"


                         SYMGRP: Point group information
                         -------------------------------

@    Point group: C1 


                                 Isotopic Masses
                                 ---------------

                           P_a        30.973763
                           H_a         1.007825
                           H_b         1.007825
                           H_c         1.007825

                       Total mass:    33.997238 amu
                       Natural abundance:  99.955 %

 Center-of-mass coordinates (a.u.):    0.000000    0.000000   -0.129691
 Center-of-mass coordinates (Angs):    0.000000    0.000000   -0.068630


  Atoms and basis sets
  --------------------

  Number of atom types :    2
  Total number of atoms:    4

  Basis set used is "aug-cc-pCVDZ" from the basis set library.

  label    atoms   charge   prim   cont     basis
  ----------------------------------------------------------------------
  P_          1   15.0000    59    36      [14s10p3d|6s5p3d]                                  
  H_          3    1.0000    11     9      [5s2p|3s2p]                                        
  ----------------------------------------------------------------------
  total:      4   18.0000    92    63
  ----------------------------------------------------------------------
  Spherical harmonic basis used.

  Threshold for neglecting AO integrals:  1.00D-12


  Cartesian Coordinates (a.u.)
  ----------------------------

  Total number of coordinates:   12
  P_a     :     1  x   0.0000000000    2  y   0.0000000000    3  z   0.0000000000
  H_a     :     4  x   0.0000000000    5  y  -2.2548212094    6  z  -1.4583016496
  H_b     :     7  x   1.9526540095    8  y   1.1274106097    9  z  -1.4583016496
  H_c     :    10  x  -1.9526540095   11  y   1.1274106097   12  z  -1.4583016496


   Interatomic separations (in Angstrom):
   --------------------------------------

            P_a         H_a         H_b         H_c   
            ------      ------      ------      ------
 P_a   :    0.000000
 H_a   :    1.421002    0.000000
 H_b   :    1.420972    2.066662    0.000000
 H_c   :    1.420972    2.066662    2.066600    0.000000


  Max    interatomic separation is    2.0667 Angstrom (    3.9054 Bohr)
  between atoms    3 and    2, "H_b   " and "H_a   ".

  Min HX interatomic separation is    1.4210 Angstrom (    2.6852 Bohr)


  Bond distances (Angstrom):
  --------------------------

                  atom 1     atom 2       distance
                  ------     ------       --------
  bond distance:  H_a        P_a          1.421002
  bond distance:  H_b        P_a          1.420972
  bond distance:  H_c        P_a          1.420972


  Bond angles (degrees):
  ----------------------

                  atom 1     atom 2     atom 3         angle
                  ------     ------     ------         -----
  bond angle:     H_a        P_a        H_b           93.303
  bond angle:     H_a        P_a        H_c           93.303
  bond angle:     H_b        P_a        H_c           93.301




 Principal moments of inertia (u*A**2) and principal axes
 --------------------------------------------------------

   IA       3.792542          0.000000    1.000000   -0.000000
   IB       3.792715          1.000000    0.000000    0.000000
   IC       4.304428          0.000000    0.000000    1.000000


 Rotational constants
 --------------------

               A                   B                   C

         133255.9944         133249.9191         117409.1033 MHz
            4.444942            4.444739            3.916346 cm-1


@  Nuclear repulsion energy :   17.526280706353 Hartree


                     .---------------------------------------.
                     | Starting in Integral Section (HERMIT) |
                     `---------------------------------------'



 ***************************************************************************************
 ****************** Output from **INTEGRALS input processing (HERMIT) ******************
 ***************************************************************************************


 - Using defaults, no **INTEGRALS input found

 Default print level:        1

 Calculation of one-electron Hamiltonian integrals.

 Center of mass  (bohr):      0.000000000000      0.000000000297     -0.129691081968
 Operator center (bohr):      0.000000000000      0.000000000000      0.000000000000
 Gauge origin    (bohr):      0.000000000000      0.000000000000      0.000000000000
 Dipole origin   (bohr):      0.000000000000      0.000000000000      0.000000000000


     ************************************************************************
     ************************** Output from HERINT **************************
     ************************************************************************



                      Nuclear contribution to dipole moments
                      --------------------------------------

                 au               Debye          C m (/(10**-30)

      x      0.00000000         0.00000000         0.00000000
      y      0.00000001         0.00000003         0.00000008
      z     -4.37490495       -11.11989850       -37.09198882


  Total CPU  time used in HERMIT:   0.09 seconds
  Total wall time used in HERMIT:   0.09 seconds


                        .----------------------------------.
                        | End of Integral Section (HERMIT) |
                        `----------------------------------'



                   .--------------------------------------------.
                   | Starting in Wave Function Section (SIRIUS) |
                   `--------------------------------------------'


 *** Output from Huckel module :

     Using EWMO model:          T
     Using EHT  model:          F
     Number of Huckel orbitals each symmetry:   17

 EWMO - Energy Weighted Maximum Overlap - is a Huckel type method,
        which normally is better than Extended Huckel Theory.
 Reference: Linderberg and Ohrn, Propagators in Quantum Chemistry (Wiley, 1973)

 Huckel EWMO eigenvalues for symmetry :  1
          -79.989138      -7.539621      -5.419453      -5.419453      -5.419331
           -1.162139      -0.617917      -0.617908      -0.435032      -0.171097
           -0.171096      -0.123482      -0.055556      -0.055556      -0.055288
           -0.028356      -0.028355

 **********************************************************************
 *SIRIUS* a direct, restricted step, second order MCSCF program       *
 **********************************************************************

 
     Date and time (Linux)  : Fri Sep 29 09:11:20 2023
     Host name              : sn-mem                                  

 Title lines from ".mol" input file:
     blah                                                                    
     blah                                                                    

 Print level on unit LUPRI =   2 is   0
 Print level on unit LUW4  =   2 is   5

@    Restricted, closed shell Hartree-Fock calculation.

@    Time-dependent Hartree-Fock calculation (random phase approximation).
 Fock matrices are calculated directly and in parallel without use of integrals on disk.

 Initial molecular orbitals are obtained according to
 ".MOSTART EWMO  " input option

     Wave function specification
     ============================
@    Wave function type        --- HF ---
@    Number of closed shell electrons          18
@    Number of electrons in active shells       0
@    Total charge of the molecule               0

@    Spin multiplicity and 2 M_S                1         0
@    Total number of symmetries                 1 (point group: C1 )
@    Reference state symmetry                   1 (irrep name : A  )

     Orbital specifications
     ======================
@    Abelian symmetry species          All |    1
@                                          |  A  
                                       --- |  ---
@    Occupied SCF orbitals               9 |    9
@    Secondary orbitals                 54 |   54
@    Total number of orbitals           63 |   63
@    Number of basis functions          63 |   63

     Optimization information
     ========================
@    Number of configurations                 1
@    Number of orbital rotations            486
     ------------------------------------------
@    Total number of variables              487

     Maximum number of Fock   iterations      0
     Maximum number of DIIS   iterations     60
     Maximum number of QC-SCF iterations     60
     Threshold for SCF convergence     1.00D-05


 ***********************************************
 ***** DIIS acceleration of SCF iterations *****
 ***********************************************

 C1-DIIS algorithm; max error vectors =    8

 Iter      Total energy        Error norm    Delta(E)  DIIS dim.
 -----------------------------------------------------------------------------
   1  Screening settings (-IFTHRS, JTDIIS, DIFDEN, times)   -7    1    T  7.44D-02  7.50D-02
@  1    -342.346971495        1.14606D+00   -3.42D+02    1
      Virial theorem: -V/T =      2.002773
@    MULPOP   P_a     0.16; H_a    -0.05; H_b    -0.05; H_c    -0.05; 
   1  Level shift: doubly occupied orbital energies shifted by -2.00D-01
 -----------------------------------------------------------------------------
   2  Screening settings (-IFTHRS, JTDIIS, DIFDEN, times)   -7    2    T  6.07D-02  6.10D-02
@  2    -342.465560730        2.88839D-01   -1.19D-01    2
      Virial theorem: -V/T =      1.999325
@    MULPOP   P_a    -0.27; H_a     0.09; H_b     0.09; H_c     0.09; 
   2  Level shift: doubly occupied orbital energies shifted by -1.00D-01
 -----------------------------------------------------------------------------
   3  Screening settings (-IFTHRS, JTDIIS, DIFDEN, times)  -11    3    F  5.93D-02  5.90D-02
@  3    -342.471757532        8.45408D-02   -6.20D-03    3
      Virial theorem: -V/T =      2.000464
@    MULPOP   P_a    -0.48; H_a     0.16; H_b     0.16; H_c     0.16; 
   3  Level shift: doubly occupied orbital energies shifted by -5.00D-02
 -----------------------------------------------------------------------------
   4  Screening settings (-IFTHRS, JTDIIS, DIFDEN, times)  -11    4    T  5.87D-02  5.90D-02
@  4    -342.472810221        2.52926D-02   -1.05D-03    4
      Virial theorem: -V/T =      2.000304
@    MULPOP   P_a    -0.53; H_a     0.18; H_b     0.18; H_c     0.18; 
   4  Level shift: doubly occupied orbital energies shifted by -2.50D-02
 -----------------------------------------------------------------------------
   5  Screening settings (-IFTHRS, JTDIIS, DIFDEN, times)  -11    5    T  5.89D-02  5.90D-02
@  5    -342.472954884        6.28114D-03   -1.45D-04    5
      Virial theorem: -V/T =      2.000377
@    MULPOP   P_a    -0.53; H_a     0.18; H_b     0.18; H_c     0.18; 
 -----------------------------------------------------------------------------
   6  Screening settings (-IFTHRS, JTDIIS, DIFDEN, times)  -11    6    T  5.92D-02  6.00D-02
@  6    -342.472967513        1.01373D-03   -1.26D-05    6
      Virial theorem: -V/T =      2.000378
@    MULPOP   P_a    -0.53; H_a     0.18; H_b     0.18; H_c     0.18; 
 -----------------------------------------------------------------------------
   7  Screening settings (-IFTHRS, JTDIIS, DIFDEN, times)  -11    7    T  5.85D-02  5.90D-02
@  7    -342.472967858        1.83015D-04   -3.45D-07    7
      Virial theorem: -V/T =      2.000381
@    MULPOP   P_a    -0.53; H_a     0.18; H_b     0.18; H_c     0.18; 
 -----------------------------------------------------------------------------
   8  Screening settings (-IFTHRS, JTDIIS, DIFDEN, times)  -11    8    T  5.85D-02  5.80D-02
@  8    -342.472967868        3.14494D-05   -9.76D-09    8
      Virial theorem: -V/T =      2.000381
@    MULPOP   P_a    -0.53; H_a     0.18; H_b     0.18; H_c     0.18; 
 -----------------------------------------------------------------------------
   9  Screening settings (-IFTHRS, JTDIIS, DIFDEN, times)  -11    9    T  6.25D-02  6.30D-02
@  9    -342.472967868        5.48001D-06   -2.18D-10    8

@ *** DIIS converged in   9 iterations !
@     Converged SCF energy, gradient:   -342.472967867999    5.48D-06
    - total time used in SIRFCK :              0.00 seconds


 *** SCF orbital energy analysis ***

 Only the 20 lowest virtual orbital energies printed in each symmetry.

 Number of electrons :   18
 Orbital occupations :    9

 Sym       Hartree-Fock orbital energies

1 A     -79.95395337    -7.49549958    -5.38924289    -5.38924279    -5.38822928
         -0.85627096    -0.51886186    -0.51886067    -0.38830251     0.03457125
          0.07056798     0.07056856     0.09870452     0.09870510     0.10252287
          0.16653094     0.20579041     0.20579110     0.26252503     0.26456868
          0.26456948     0.35917440     0.39367010     0.39367285     0.47385828
          0.47467555     0.47467666     0.48483117     0.48483565

    E(LUMO) :     0.03457125 au (symmetry 1)
  - E(HOMO) :    -0.38830251 au (symmetry 1)
  ------------------------------------------
    gap     :     0.42287375 au

 --- Writing SIRIFC interface file

 CPU and wall time for SCF :       0.581       0.586


                       .-----------------------------------.
                       | --- Final results from SIRIUS --- |
                       `-----------------------------------'


@    Spin multiplicity:           1
@    Spatial symmetry:            1 ( irrep  A   in C1  )
@    Total charge of molecule:    0

@    Final HF energy:            -342.472967867999                 
@    Nuclear repulsion:            17.526280706353
@    Electronic energy:          -359.999248574352

@    Final gradient norm:           0.000005480011

 
     Date and time (Linux)  : Fri Sep 29 09:11:20 2023
     Host name              : sn-mem                                  

File label for MO orbitals:  29Sep23   FOCKDIIS

 (Only coefficients > 0.0100 are printed.)

 Molecular orbitals for symmetry species 1  (A  )
 ------------------------------------------------

    Orbital         1        2        3        4        5        6        7
   1 P_a :1s    -0.9999   0.0013  -0.0000   0.0000   0.0008   0.0004  -0.0000
   2 P_a :1s    -0.0004   1.0107  -0.0000  -0.0000  -0.0036  -0.0055  -0.0000
   3 P_a :1s    -0.0016   0.0271  -0.0000   0.0000   0.0051   0.8080   0.0000
   4 P_a :1s     0.0053  -0.0927   0.0000  -0.0000  -0.0099  -0.1174   0.0000
   7 P_a :2px    0.0000  -0.0000  -1.0002   0.0000   0.0000   0.0000  -0.0000
   8 P_a :2py   -0.0000  -0.0000   0.0000   1.0002  -0.0001  -0.0000   0.0175
   9 P_a :2pz    0.0003  -0.0055  -0.0000  -0.0001  -1.0010   0.0124  -0.0000
  11 P_a :2py   -0.0000   0.0000   0.0000   0.0025  -0.0000   0.0000  -0.6362
  12 P_a :2pz    0.0002  -0.0040  -0.0000   0.0000   0.0004  -0.1335   0.0000
  13 P_a :2px    0.0000   0.0000   0.0122  -0.0000  -0.0000  -0.0000  -0.0000
  14 P_a :2py    0.0000  -0.0000  -0.0000  -0.0122   0.0000  -0.0000  -0.0144
  15 P_a :2pz   -0.0019   0.0331  -0.0000   0.0000   0.0052   0.0540  -0.0000
  28 P_a :3d1-   0.0000  -0.0000  -0.0000  -0.0007   0.0000  -0.0000   0.0783
  31 P_a :3d2+  -0.0000   0.0000  -0.0000   0.0002  -0.0000  -0.0000  -0.0578
  33 P_a :3d1-  -0.0000   0.0000   0.0000   0.0041  -0.0000   0.0000   0.0664
  36 P_a :3d2+   0.0000  -0.0000  -0.0000  -0.0015   0.0000   0.0000  -0.0345
  37 H_a :1s     0.0000   0.0003  -0.0000  -0.0005   0.0008   0.3036   0.6108
  38 H_a :1s    -0.0016   0.0282  -0.0000  -0.0112   0.0032  -0.1178  -0.3137
  39 H_a :1s    -0.0001   0.0011  -0.0000   0.0008   0.0006   0.0023   0.0241
  41 H_a :2py    0.0001  -0.0004   0.0000  -0.0001   0.0002   0.0180   0.0138
  42 H_a :2pz    0.0000  -0.0004  -0.0000  -0.0001   0.0003   0.0111   0.0144
  44 H_a :2py   -0.0005   0.0090  -0.0000  -0.0018   0.0010   0.0009  -0.0436
  45 H_a :2pz   -0.0002   0.0034  -0.0000  -0.0017  -0.0007   0.0011  -0.0295
  46 H_b :1s     0.0000   0.0003  -0.0005   0.0003   0.0008   0.3036  -0.3054
  47 H_b :1s    -0.0016   0.0282  -0.0097   0.0056   0.0032  -0.1178   0.1568
  48 H_b :1s    -0.0001   0.0011   0.0007  -0.0004   0.0006   0.0023  -0.0121
  49 H_b :2px   -0.0000   0.0004   0.0001  -0.0000  -0.0002  -0.0156   0.0086
  51 H_b :2pz    0.0000  -0.0004  -0.0001   0.0000   0.0003   0.0111  -0.0072
  52 H_b :2px    0.0005  -0.0078   0.0010  -0.0014  -0.0009  -0.0008  -0.0240
  54 H_b :2pz   -0.0002   0.0034  -0.0014   0.0008  -0.0007   0.0011   0.0148
  55 H_c :1s     0.0000   0.0003   0.0005   0.0003   0.0008   0.3036  -0.3054
  56 H_c :1s    -0.0016   0.0282   0.0097   0.0056   0.0032  -0.1178   0.1568
  57 H_c :1s    -0.0001   0.0011  -0.0007  -0.0004   0.0006   0.0023  -0.0121
  58 H_c :2px    0.0000  -0.0004   0.0001   0.0000   0.0002   0.0156  -0.0086
  60 H_c :2pz    0.0000  -0.0004   0.0001   0.0000   0.0003   0.0111  -0.0072
  61 H_c :2px   -0.0005   0.0078   0.0010   0.0014   0.0009   0.0008   0.0240
  63 H_c :2pz   -0.0002   0.0034   0.0014   0.0008  -0.0007   0.0011   0.0148

    Orbital         8        9       10       11       12       13       14
   2 P_a :1s     0.0000  -0.0021   0.0418   0.0000  -0.0000  -0.0000  -0.0000
   3 P_a :1s     0.0000  -0.4166  -0.0887   0.0000  -0.0000  -0.0000  -0.0000
   4 P_a :1s    -0.0000  -0.1823  -1.0161  -0.0000   0.0000   0.0000   0.0001
   6 P_a :1s    -0.0000  -0.0540  -3.5037   0.0000   0.0000  -0.0000   0.0002
   7 P_a :2px   -0.0175   0.0000  -0.0000   0.0000   0.0029  -0.0086   0.0000
   9 P_a :2pz   -0.0000   0.0110  -0.0073  -0.0000   0.0000  -0.0000   0.0000
  10 P_a :2px    0.6362   0.0000  -0.0000  -0.0000   0.1859   0.0865  -0.0000
  11 P_a :2py    0.0000  -0.0000   0.0000   0.1859   0.0000   0.0000   0.0865
  12 P_a :2pz   -0.0000  -0.7780   0.0503   0.0000  -0.0000  -0.0000   0.0000
  13 P_a :2px    0.0144   0.0000   0.0000  -0.0000   0.0501   1.1730  -0.0000
  14 P_a :2py   -0.0000  -0.0000  -0.0000   0.0501   0.0000   0.0000   1.1731
  15 P_a :2pz    0.0000   0.0668   0.7250   0.0000  -0.0000   0.0000  -0.0001
  19 P_a :2px   -0.0016  -0.0000   0.0000  -0.0000   1.1536   2.7342  -0.0000
  20 P_a :2py   -0.0000  -0.0000  -0.0000   1.1536   0.0000   0.0000   2.7343
  21 P_a :2pz    0.0000  -0.0375   0.8450  -0.0000  -0.0000   0.0000  -0.0001
  27 P_a :3d2-   0.0578   0.0000  -0.0000   0.0000  -0.0006  -0.0449   0.0000
  28 P_a :3d1-  -0.0000   0.0000   0.0000  -0.0036   0.0000   0.0000   0.0647
  30 P_a :3d1+  -0.0783   0.0000  -0.0000  -0.0000  -0.0036   0.0648  -0.0000
  31 P_a :3d2+  -0.0000  -0.0000  -0.0000  -0.0006  -0.0000  -0.0000  -0.0449
  32 P_a :3d2-   0.0345   0.0000  -0.0000  -0.0000   0.0424   0.1960  -0.0000
  33 P_a :3d1-   0.0000   0.0000   0.0000  -0.0091  -0.0000  -0.0000  -0.5313
  34 P_a :3d0   -0.0000   0.0097  -0.0950  -0.0000  -0.0000  -0.0000   0.0000
  35 P_a :3d1+  -0.0664   0.0000  -0.0000   0.0000  -0.0091  -0.5313   0.0000
  36 P_a :3d2+  -0.0000  -0.0000  -0.0000   0.0424   0.0000   0.0000   0.1960
  37 H_a :1s    -0.0000   0.2279  -0.0071  -0.0296   0.0000   0.0000   0.1804
  38 H_a :1s    -0.0000  -0.0150   0.7159  -0.0203   0.0000   0.0000   1.8683
  39 H_a :1s    -0.0000   0.0063   1.2902   3.8321   0.0000   0.0000   3.2354
  40 H_a :2px    0.0061  -0.0000   0.0000   0.0000   0.0001   0.0106  -0.0000
  41 H_a :2py   -0.0000   0.0093  -0.0039  -0.0131  -0.0000   0.0000   0.0061
  43 H_a :2px   -0.0120  -0.0000   0.0000  -0.0000   0.0356  -0.1856   0.0000
  44 H_a :2py   -0.0000   0.0072   0.2006   0.1020   0.0000   0.0000   0.2782
  45 H_a :2pz   -0.0000   0.0054   0.0351   0.0528   0.0000   0.0000   0.2297
  46 H_b :1s     0.5289   0.2279  -0.0071   0.0148   0.0256  -0.1562  -0.0902
  47 H_b :1s    -0.2717  -0.0149   0.7160   0.0102   0.0176  -1.6180  -0.9342
  48 H_b :1s     0.0209   0.0063   1.2903  -1.9161  -3.3188  -2.8021  -1.6178
  51 H_b :2pz    0.0124  -0.0042  -0.0021   0.0043   0.0075   0.0032   0.0019
  52 H_b :2px    0.0297  -0.0063  -0.1737   0.0288   0.0854   0.1622   0.2009
  53 H_b :2py    0.0240  -0.0036  -0.1003   0.0522   0.0288   0.2009  -0.0697
  54 H_b :2pz   -0.0256   0.0054   0.0351  -0.0264  -0.0457  -0.1989  -0.1148
  55 H_c :1s    -0.5289   0.2279  -0.0071   0.0148  -0.0256   0.1562  -0.0902
  56 H_c :1s     0.2717  -0.0149   0.7160   0.0102  -0.0176   1.6180  -0.9343
  57 H_c :1s    -0.0209   0.0063   1.2903  -1.9161   3.3188   2.8021  -1.6178
  60 H_c :2pz   -0.0124  -0.0042  -0.0021   0.0043  -0.0075  -0.0032   0.0019
  61 H_c :2px    0.0297   0.0063   0.1737  -0.0288   0.0854   0.1622  -0.2009
  62 H_c :2py   -0.0240  -0.0036  -0.1003   0.0522  -0.0288  -0.2009  -0.0697
  63 H_c :2pz    0.0256   0.0054   0.0351  -0.0264   0.0457   0.1989  -0.1148

    Orbital        15       16       17       18       19
   1 P_a :1s    -0.0053  -0.0247  -0.0000  -0.0000  -0.0009
   2 P_a :1s    -0.0351  -0.1738  -0.0000  -0.0000  -0.0129
   3 P_a :1s     0.0155  -0.7363  -0.0000  -0.0000  -0.1055
   4 P_a :1s     0.2088   2.7673   0.0003   0.0000   0.0405
   6 P_a :1s     0.9481   8.1556   0.0006   0.0000  -1.1537
   9 P_a :2pz   -0.0081   0.0249   0.0000  -0.0000  -0.0008
  10 P_a :2px    0.0000  -0.0000   0.0000  -0.5607   0.0000
  11 P_a :2py   -0.0000   0.0000  -0.5608  -0.0000  -0.0001
  12 P_a :2pz    0.2114   0.2462  -0.0000  -0.0000   0.0435
  13 P_a :2px    0.0000  -0.0000  -0.0002   1.7553   0.0000
  14 P_a :2py   -0.0000   0.0001   1.7554   0.0002  -0.0002
  15 P_a :2pz   -0.0014  -2.2945  -0.0002  -0.0000  -0.0686
  19 P_a :2px   -0.0000   0.0000  -0.0002   2.4085  -0.0000
  20 P_a :2py   -0.0000  -0.0001   2.4085   0.0002   0.0001
  21 P_a :2pz   -1.5373  -1.5165  -0.0001  -0.0000   0.1283
  27 P_a :3d2-   0.0000  -0.0000  -0.0000   0.0907   0.0000
  28 P_a :3d1-  -0.0000  -0.0000  -0.0777  -0.0000  -0.0000
  29 P_a :3d0   -0.0138  -0.0119   0.0000  -0.0000  -0.1023
  30 P_a :3d1+   0.0000  -0.0000   0.0000  -0.0777   0.0000
  31 P_a :3d2+   0.0000  -0.0000   0.0906   0.0000  -0.0000
  32 P_a :3d2-   0.0000  -0.0000  -0.0001   0.6467   0.0000
  33 P_a :3d1-   0.0000  -0.0000  -1.0779  -0.0001  -0.0002
  34 P_a :3d0    0.2205   0.2233   0.0000   0.0000  -0.4740
  35 P_a :3d1+   0.0000  -0.0000   0.0001  -1.0778   0.0000
  36 P_a :3d2+  -0.0000  -0.0000   0.6467   0.0001  -0.0002
  37 H_a :1s    -0.0356   0.0698  -0.3261  -0.0000   0.0780
  38 H_a :1s    -0.3031  -2.1907   2.6066   0.0002   0.2860
  39 H_a :1s    -0.2278  -1.8101   3.5015   0.0003   0.1870
  41 H_a :2py   -0.0059  -0.0148  -0.0045  -0.0000   0.0016
  42 H_a :2pz   -0.0108  -0.0044   0.0013   0.0000   0.0051
  43 H_a :2px   -0.0000   0.0000   0.0000  -0.3129  -0.0000
  44 H_a :2py   -0.0475  -0.6958   0.7992   0.0001  -0.1650
  45 H_a :2pz    0.1502  -0.1711   0.6277   0.0001   0.2069
  46 H_b :1s    -0.0356   0.0697   0.1630   0.2824   0.0780
  47 H_b :1s    -0.3030  -2.1908  -1.3034  -2.2577   0.2861
  48 H_b :1s    -0.2277  -1.8099  -1.7506  -3.0327   0.1867
  49 H_b :2px    0.0051   0.0128   0.0018  -0.0056  -0.0014
  51 H_b :2pz   -0.0108  -0.0044  -0.0007  -0.0011   0.0051
  52 H_b :2px    0.0411   0.6026   0.4815   0.5212   0.1428
  53 H_b :2py    0.0238   0.3479  -0.0349   0.4816   0.0826
  54 H_b :2pz    0.1502  -0.1711  -0.3139  -0.5437   0.2067
  55 H_c :1s    -0.0356   0.0697   0.1630  -0.2824   0.0780
  56 H_c :1s    -0.3030  -2.1908  -1.3038   2.2574   0.2861
  57 H_c :1s    -0.2277  -1.8099  -1.7512   3.0324   0.1866
  58 H_c :2px   -0.0051  -0.0128  -0.0018  -0.0056   0.0014
  60 H_c :2pz   -0.0108  -0.0044  -0.0007   0.0011   0.0051
  61 H_c :2px   -0.0411  -0.6026  -0.4816   0.5212  -0.1428
  62 H_c :2py    0.0238   0.3479  -0.0348  -0.4816   0.0826
  63 H_c :2pz    0.1502  -0.1711  -0.3140   0.5436   0.2067

  Total CPU  time used in SIRIUS :   0.61 seconds
  Total wall time used in SIRIUS :   0.62 seconds

 
     Date and time (Linux)  : Fri Sep 29 09:11:20 2023
     Host name              : sn-mem                                  


                     .---------------------------------------.
                     | End of Wave Function Section (SIRIUS) |
                     `---------------------------------------'



                 .------------------------------------------------.
                 | Starting in Dynamic Property Section (RESPONS) |
                 `------------------------------------------------'


 ----------------------------------------------------------------------------------------
  RESPONSE  -  an MCSCF, MC-srDFT, DFT, SOPPA and SOPPA-srDFT response property program
 ----------------------------------------------------------------------------------------


 -------- OUTPUT FROM RESPONSE INPUT PROCESSING --------




 Quadratic Response calculation
 ------------------------------

 First hyperpolarizability calculation : HYPCAL= T

 Spin of operator A , ISPINA=    0
 Spin of operator B , ISPINB=    0
 Spin of operator C , ISPINC=    0

  5 B-frequencies  0.000000D+00  1.647050D-02  3.294100D-02  4.941150D-02  6.588200D-02
  5 C-frequencies  0.000000D+00  1.647050D-02  3.294100D-02  4.941150D-02  6.588200D-02


 Print level                                    : IPRHYP =   2
 Maximum number of iterations in lin.rsp. solver: MAXITL =  60
 Threshold for convergence of linear resp. eq.s : THCLR  = 1.000D-03
 Maximum iterations in optimal orbital algorithm: MAXITO =   5
 Direct one-index transformation                : DIROIT = T

    3 A OPERATORS OF SYMMETRY NO:    1 AND LABELS:

          XDIPLEN 
          YDIPLEN 
          ZDIPLEN 

    3 B OPERATORS OF SYMMETRY NO:    1 AND LABELS:

          XDIPLEN 
          YDIPLEN 
          ZDIPLEN 

    3 C OPERATORS OF SYMMETRY NO:    1 AND LABELS:

          XDIPLEN 
          YDIPLEN 
          ZDIPLEN 


   SCF energy         :     -342.472967867998761
 -- inactive part     :     -359.999248574351952
 -- nuclear repulsion :       17.526280706353216


                     ***************************************
                     *** RHF response calculation (TDHF) ***
                     ***************************************



 Linear response calculations for quadratic response
 - singlet property operator of symmetry    1  ( A  )


 Perturbation symmetry.     KSYMOP:           1
 Perturbation spin symmetry.TRPLET:           F
 Orbital variables.         KZWOPT:         486
 Configuration variables.   KZCONF:           0
 Total number of variables. KZVAR :         486


 QRLRVE -- linear response calculation for symmetry  1  ( A  )
 QRLRVE -- operator label : XDIPLEN 
 QRLRVE -- operator spin  :   0
 QRLRVE -- frequencies :  0.000000  0.016470  0.032941  0.049411  0.065882
                          0.082352  0.098823  0.115293  0.131764



 ---  SOLVING SETS OF LINEAR EQUATIONS FOR LINEAR RESPONSE PROPERTIES ---

 Operator symmetry = 1  ( A  ); triplet =   F


 ** RSPCTL MICROITERATION NUMBER    1

       No.  Residual tot.,    conf., and orb.    Bnorm      Frequency 
      ----------------------------------------------------------------
         1    1.79116D+00  0.00D+00  1.79D+00  4.84D+00    0.00000D+00
         2    1.79372D+00  0.00D+00  1.79D+00  4.85D+00    1.64705D-02
         3    1.80148D+00  0.00D+00  1.80D+00  4.90D+00    3.29410D-02
         4    1.81464D+00  0.00D+00  1.81D+00  4.97D+00    4.94115D-02
         5    1.83354D+00  0.00D+00  1.83D+00  5.07D+00    6.58820D-02
         6    1.85872D+00  0.00D+00  1.86D+00  5.21D+00    8.23525D-02
         7    1.89093D+00  0.00D+00  1.89D+00  5.39D+00    9.88230D-02
         8    1.93124D+00  0.00D+00  1.93D+00  5.62D+00    1.15293D-01
         9    1.98118D+00  0.00D+00  1.98D+00  5.90D+00    1.31764D-01

 ** RSPCTL MICROITERATION NUMBER    2

       No.  Residual tot.,    conf., and orb.    Bnorm      Frequency 
      ----------------------------------------------------------------
         1    2.42040D-01  0.00D+00  2.42D-01  5.20D+00    0.00000D+00
         2    2.42628D-01  0.00D+00  2.43D-01  5.21D+00    1.64705D-02
         3    2.44408D-01  0.00D+00  2.44D-01  5.26D+00    3.29410D-02
         4    2.47432D-01  0.00D+00  2.47D-01  5.34D+00    4.94115D-02
         5    2.51794D-01  0.00D+00  2.52D-01  5.47D+00    6.58820D-02
         6    2.57634D-01  0.00D+00  2.58D-01  5.63D+00    8.23525D-02
         7    2.65158D-01  0.00D+00  2.65D-01  5.84D+00    9.88230D-02
         8    2.74660D-01  0.00D+00  2.75D-01  6.10D+00    1.15293D-01
         9    2.86569D-01  0.00D+00  2.87D-01  6.44D+00    1.31764D-01

 ** RSPCTL MICROITERATION NUMBER    3

       No.  Residual tot.,    conf., and orb.    Bnorm      Frequency 
      ----------------------------------------------------------------
         1    1.72338D-02  0.00D+00  1.72D-02  5.20D+00    0.00000D+00
         2    1.73174D-02  0.00D+00  1.73D-02  5.22D+00    1.64705D-02
         3    1.75708D-02  0.00D+00  1.76D-02  5.27D+00    3.29410D-02
         4    1.80022D-02  0.00D+00  1.80D-02  5.35D+00    4.94115D-02
         5    1.86262D-02  0.00D+00  1.86D-02  5.47D+00    6.58820D-02
         6    1.94652D-02  0.00D+00  1.95D-02  5.63D+00    8.23525D-02
         7    2.05516D-02  0.00D+00  2.06D-02  5.84D+00    9.88230D-02
         8    2.19319D-02  0.00D+00  2.19D-02  6.11D+00    1.15293D-01
         9    2.36737D-02  0.00D+00  2.37D-02  6.45D+00    1.31764D-01

 ** RSPCTL MICROITERATION NUMBER    4

       No.  Residual tot.,    conf., and orb.    Bnorm      Frequency 
      ----------------------------------------------------------------
         1    1.81686D-03  0.00D+00  1.82D-03  5.20D+00    0.00000D+00
         2    1.82303D-03  0.00D+00  1.82D-03  5.22D+00    1.64705D-02
         3    1.84191D-03  0.00D+00  1.84D-03  5.27D+00    3.29410D-02
         4    1.87466D-03  0.00D+00  1.87D-03  5.35D+00    4.94115D-02
         5    1.92343D-03  0.00D+00  1.92D-03  5.47D+00    6.58820D-02
         6    1.99173D-03  0.00D+00  1.99D-03  5.63D+00    8.23525D-02
         7    2.08521D-03  0.00D+00  2.09D-03  5.84D+00    9.88230D-02
         8    2.21292D-03  0.00D+00  2.21D-03  6.11D+00    1.15293D-01
         9    2.38979D-03  0.00D+00  2.39D-03  6.45D+00    1.31764D-01

 *** THE REQUESTED    9 SOLUTION VECTORS CONVERGED

 Convergence of RSP solution vectors, threshold = 1.00D-03
 ---------------------------------------------------------------
 (dimension of paired reduced space:   72)
 RSP solution vector no.    1; norm of residual   3.49D-04
 RSP solution vector no.    2; norm of residual   3.50D-04
 RSP solution vector no.    3; norm of residual   3.50D-04
 RSP solution vector no.    4; norm of residual   3.50D-04
 RSP solution vector no.    5; norm of residual   3.52D-04
 RSP solution vector no.    6; norm of residual   3.54D-04
 RSP solution vector no.    7; norm of residual   3.57D-04
 RSP solution vector no.    8; norm of residual   3.62D-04
 RSP solution vector no.    9; norm of residual   3.71D-04

 *** RSPCTL MICROITERATIONS CONVERGED

@ QRLRVE: SINGLET SOLUTION FOR SYMMETRY    1  ( A  )    LABEL   XDIPLEN     FREQUENCY   0.000000D+00

@ QRLRVE:  << XDIPLEN  ; XDIPLEN  >> (   0.00000):     29.1637056493    

@ QRLRVE:  << YDIPLEN  ; XDIPLEN  >> (   0.00000):    2.215338209352E-04

@ QRLRVE:  << ZDIPLEN  ; XDIPLEN  >> (   0.00000):   -3.978687571482E-05

@ QRLRVE: SINGLET SOLUTION FOR SYMMETRY    1  ( A  )    LABEL   XDIPLEN     FREQUENCY   0.164705D-01

@ QRLRVE:  << XDIPLEN  ; XDIPLEN  >> (   0.01647):     29.2077456692    

@ QRLRVE:  << YDIPLEN  ; XDIPLEN  >> (   0.01647):    2.219932700684E-04

@ QRLRVE:  << ZDIPLEN  ; XDIPLEN  >> (   0.01647):   -4.155343719938E-05

@ QRLRVE: SINGLET SOLUTION FOR SYMMETRY    1  ( A  )    LABEL   XDIPLEN     FREQUENCY   0.329410D-01

@ QRLRVE:  << XDIPLEN  ; XDIPLEN  >> (   0.03294):     29.3409705636    

@ QRLRVE:  << YDIPLEN  ; XDIPLEN  >> (   0.03294):    2.232343340792E-04

@ QRLRVE:  << ZDIPLEN  ; XDIPLEN  >> (   0.03294):   -4.693824048783E-05

@ QRLRVE: SINGLET SOLUTION FOR SYMMETRY    1  ( A  )    LABEL   XDIPLEN     FREQUENCY   0.494115D-01

@ QRLRVE:  << XDIPLEN  ; XDIPLEN  >> (   0.04941):     29.5667848154    

@ QRLRVE:  << YDIPLEN  ; XDIPLEN  >> (   0.04941):    2.248049264298E-04

@ QRLRVE:  << ZDIPLEN  ; XDIPLEN  >> (   0.04941):   -5.620522197854E-05

@ QRLRVE: SINGLET SOLUTION FOR SYMMETRY    1  ( A  )    LABEL   XDIPLEN     FREQUENCY   0.658820D-01

@ QRLRVE:  << XDIPLEN  ; XDIPLEN  >> (   0.06588):     29.8911787399    

@ QRLRVE:  << YDIPLEN  ; XDIPLEN  >> (   0.06588):    2.258042130979E-04

@ QRLRVE:  << ZDIPLEN  ; XDIPLEN  >> (   0.06588):   -6.982497858322E-05

@ QRLRVE: SINGLET SOLUTION FOR SYMMETRY    1  ( A  )    LABEL   XDIPLEN     FREQUENCY   0.823525D-01

@ QRLRVE:  << XDIPLEN  ; XDIPLEN  >> (   0.08235):     30.3232648791    

@ QRLRVE:  << YDIPLEN  ; XDIPLEN  >> (   0.08235):    2.246094414631E-04

@ QRLRVE:  << ZDIPLEN  ; XDIPLEN  >> (   0.08235):   -8.852926654732E-05

@ QRLRVE: SINGLET SOLUTION FOR SYMMETRY    1  ( A  )    LABEL   XDIPLEN     FREQUENCY   0.988230D-01

@ QRLRVE:  << XDIPLEN  ; XDIPLEN  >> (   0.09882):     30.8761748461    

@ QRLRVE:  << YDIPLEN  ; XDIPLEN  >> (   0.09882):    2.183647997935E-04

@ QRLRVE:  << ZDIPLEN  ; XDIPLEN  >> (   0.09882):   -1.134089609192E-04

@ QRLRVE: SINGLET SOLUTION FOR SYMMETRY    1  ( A  )    LABEL   XDIPLEN     FREQUENCY   0.115293D+00

@ QRLRVE:  << XDIPLEN  ; XDIPLEN  >> (   0.11529):     31.5685249648    

@ QRLRVE:  << YDIPLEN  ; XDIPLEN  >> (   0.11529):    2.020308799219E-04

@ QRLRVE:  << ZDIPLEN  ; XDIPLEN  >> (   0.11529):   -1.460924270107E-04

@ QRLRVE: SINGLET SOLUTION FOR SYMMETRY    1  ( A  )    LABEL   XDIPLEN     FREQUENCY   0.131764D+00

@ QRLRVE:  << XDIPLEN  ; XDIPLEN  >> (   0.13176):     32.4268484449    

@ QRLRVE:  << YDIPLEN  ; XDIPLEN  >> (   0.13176):    1.665774296778E-04

@ QRLRVE:  << ZDIPLEN  ; XDIPLEN  >> (   0.13176):   -1.890892329140E-04


 QRLRVE -- linear response calculation for symmetry  1  ( A  )
 QRLRVE -- operator label : YDIPLEN 
 QRLRVE -- operator spin  :   0
 QRLRVE -- frequencies :  0.000000  0.016470  0.032941  0.049411  0.065882
                          0.082352  0.098823  0.115293  0.131764



 ---  SOLVING SETS OF LINEAR EQUATIONS FOR LINEAR RESPONSE PROPERTIES ---

 Operator symmetry = 1  ( A  ); triplet =   F


 ** RSPCTL MICROITERATION NUMBER    1

       No.  Residual tot.,    conf., and orb.    Bnorm      Frequency 
      ----------------------------------------------------------------
         1    1.76767D+00  0.00D+00  1.77D+00  4.84D+00    0.00000D+00
         2    1.77024D+00  0.00D+00  1.77D+00  4.85D+00    1.64705D-02
         3    1.77803D+00  0.00D+00  1.78D+00  4.90D+00    3.29410D-02
         4    1.79124D+00  0.00D+00  1.79D+00  4.97D+00    4.94115D-02
         5    1.81021D+00  0.00D+00  1.81D+00  5.08D+00    6.58820D-02
         6    1.83550D+00  0.00D+00  1.84D+00  5.22D+00    8.23525D-02
         7    1.86788D+00  0.00D+00  1.87D+00  5.40D+00    9.88230D-02
         8    1.90844D+00  0.00D+00  1.91D+00  5.62D+00    1.15293D-01
         9    1.95873D+00  0.00D+00  1.96D+00  5.90D+00    1.31764D-01

 ** RSPCTL MICROITERATION NUMBER    2

       No.  Residual tot.,    conf., and orb.    Bnorm      Frequency 
      ----------------------------------------------------------------
         1    2.31158D-01  0.00D+00  2.31D-01  5.20D+00    0.00000D+00
         2    2.31719D-01  0.00D+00  2.32D-01  5.21D+00    1.64705D-02
         3    2.33420D-01  0.00D+00  2.33D-01  5.26D+00    3.29410D-02
         4    2.36311D-01  0.00D+00  2.36D-01  5.34D+00    4.94115D-02
         5    2.40481D-01  0.00D+00  2.40D-01  5.47D+00    6.58820D-02
         6    2.46068D-01  0.00D+00  2.46D-01  5.63D+00    8.23525D-02
         7    2.53272D-01  0.00D+00  2.53D-01  5.84D+00    9.88230D-02
         8    2.62382D-01  0.00D+00  2.62D-01  6.10D+00    1.15293D-01
         9    2.73821D-01  0.00D+00  2.74D-01  6.44D+00    1.31764D-01

 ** RSPCTL MICROITERATION NUMBER    3

       No.  Residual tot.,    conf., and orb.    Bnorm      Frequency 
      ----------------------------------------------------------------
         1    1.65534D-02  0.00D+00  1.66D-02  5.20D+00    0.00000D+00
         2    1.66306D-02  0.00D+00  1.66D-02  5.22D+00    1.64705D-02
         3    1.68649D-02  0.00D+00  1.69D-02  5.27D+00    3.29410D-02
         4    1.72655D-02  0.00D+00  1.73D-02  5.35D+00    4.94115D-02
         5    1.78488D-02  0.00D+00  1.78D-02  5.47D+00    6.58820D-02
         6    1.86401D-02  0.00D+00  1.86D-02  5.63D+00    8.23525D-02
         7    1.96772D-02  0.00D+00  1.97D-02  5.84D+00    9.88230D-02
         8    2.10164D-02  0.00D+00  2.10D-02  6.11D+00    1.15293D-01
         9    2.27431D-02  0.00D+00  2.27D-02  6.45D+00    1.31764D-01

 ** RSPCTL MICROITERATION NUMBER    4

       No.  Residual tot.,    conf., and orb.    Bnorm      Frequency 
      ----------------------------------------------------------------
         1    1.66854D-03  0.00D+00  1.67D-03  5.20D+00    0.00000D+00
         2    1.67587D-03  0.00D+00  1.68D-03  5.22D+00    1.64705D-02
         3    1.69839D-03  0.00D+00  1.70D-03  5.27D+00    3.29410D-02
         4    1.73781D-03  0.00D+00  1.74D-03  5.35D+00    4.94115D-02
         5    1.79738D-03  0.00D+00  1.80D-03  5.47D+00    6.58820D-02
         6    1.88248D-03  0.00D+00  1.88D-03  5.63D+00    8.23525D-02
         7    2.00189D-03  0.00D+00  2.00D-03  5.84D+00    9.88230D-02
         8    2.16984D-03  0.00D+00  2.17D-03  6.11D+00    1.15293D-01
         9    2.40981D-03  0.00D+00  2.41D-03  6.45D+00    1.31764D-01

 *** THE REQUESTED    9 SOLUTION VECTORS CONVERGED

 Convergence of RSP solution vectors, threshold = 1.00D-03
 ---------------------------------------------------------------
 (dimension of paired reduced space:   72)
 RSP solution vector no.    1; norm of residual   3.21D-04
 RSP solution vector no.    2; norm of residual   3.21D-04
 RSP solution vector no.    3; norm of residual   3.23D-04
 RSP solution vector no.    4; norm of residual   3.25D-04
 RSP solution vector no.    5; norm of residual   3.29D-04
 RSP solution vector no.    6; norm of residual   3.34D-04
 RSP solution vector no.    7; norm of residual   3.43D-04
 RSP solution vector no.    8; norm of residual   3.55D-04
 RSP solution vector no.    9; norm of residual   3.74D-04

 *** RSPCTL MICROITERATIONS CONVERGED

@ QRLRVE: SINGLET SOLUTION FOR SYMMETRY    1  ( A  )    LABEL   YDIPLEN     FREQUENCY   0.000000D+00

@ QRLRVE:  << XDIPLEN  ; YDIPLEN  >> (   0.00000):    1.793053719311E-05

@ QRLRVE:  << YDIPLEN  ; YDIPLEN  >> (   0.00000):     29.1644179093    

@ QRLRVE:  << ZDIPLEN  ; YDIPLEN  >> (   0.00000):    1.046635397270E-04

@ QRLRVE: SINGLET SOLUTION FOR SYMMETRY    1  ( A  )    LABEL   YDIPLEN     FREQUENCY   0.164705D-01

@ QRLRVE:  << XDIPLEN  ; YDIPLEN  >> (   0.01647):    1.811352436099E-05

@ QRLRVE:  << YDIPLEN  ; YDIPLEN  >> (   0.01647):     29.2084600530    

@ QRLRVE:  << ZDIPLEN  ; YDIPLEN  >> (   0.01647):    1.038625074674E-04

@ QRLRVE: SINGLET SOLUTION FOR SYMMETRY    1  ( A  )    LABEL   YDIPLEN     FREQUENCY   0.329410D-01

@ QRLRVE:  << XDIPLEN  ; YDIPLEN  >> (   0.03294):    1.869494293071E-05

@ QRLRVE:  << YDIPLEN  ; YDIPLEN  >> (   0.03294):     29.3416913863    

@ QRLRVE:  << ZDIPLEN  ; YDIPLEN  >> (   0.03294):    1.014355767612E-04

@ QRLRVE: SINGLET SOLUTION FOR SYMMETRY    1  ( A  )    LABEL   YDIPLEN     FREQUENCY   0.494115D-01

@ QRLRVE:  << XDIPLEN  ; YDIPLEN  >> (   0.04941):    1.977899445251E-05

@ QRLRVE:  << YDIPLEN  ; YDIPLEN  >> (   0.04941):     29.5675165997    

@ QRLRVE:  << ZDIPLEN  ; YDIPLEN  >> (   0.04941):    9.731872745666E-05

@ QRLRVE: SINGLET SOLUTION FOR SYMMETRY    1  ( A  )    LABEL   YDIPLEN     FREQUENCY   0.658820D-01

@ QRLRVE:  << XDIPLEN  ; YDIPLEN  >> (   0.06588):    2.156400390666E-05

@ QRLRVE:  << YDIPLEN  ; YDIPLEN  >> (   0.06588):     29.8919263734    

@ QRLRVE:  << ZDIPLEN  ; YDIPLEN  >> (   0.06588):    9.143543204271E-05

@ QRLRVE: SINGLET SOLUTION FOR SYMMETRY    1  ( A  )    LABEL   YDIPLEN     FREQUENCY   0.823525D-01

@ QRLRVE:  << XDIPLEN  ; YDIPLEN  >> (   0.08235):    2.438674852474E-05

@ QRLRVE:  << YDIPLEN  ; YDIPLEN  >> (   0.08235):     30.3240338014    

@ QRLRVE:  << ZDIPLEN  ; YDIPLEN  >> (   0.08235):    8.376368596696E-05

@ QRLRVE: SINGLET SOLUTION FOR SYMMETRY    1  ( A  )    LABEL   YDIPLEN     FREQUENCY   0.988230D-01

@ QRLRVE:  << XDIPLEN  ; YDIPLEN  >> (   0.09882):    2.880228106164E-05

@ QRLRVE:  << YDIPLEN  ; YDIPLEN  >> (   0.09882):     30.8769712849    

@ QRLRVE:  << ZDIPLEN  ; YDIPLEN  >> (   0.09882):    7.448864646609E-05

@ QRLRVE: SINGLET SOLUTION FOR SYMMETRY    1  ( A  )    LABEL   YDIPLEN     FREQUENCY   0.115293D+00

@ QRLRVE:  << XDIPLEN  ; YDIPLEN  >> (   0.11529):    3.572604954492E-05

@ QRLRVE:  << YDIPLEN  ; YDIPLEN  >> (   0.11529):     31.5693562477    

@ QRLRVE:  << ZDIPLEN  ; YDIPLEN  >> (   0.11529):    6.434862947868E-05

@ QRLRVE: SINGLET SOLUTION FOR SYMMETRY    1  ( A  )    LABEL   YDIPLEN     FREQUENCY   0.131764D+00

@ QRLRVE:  << XDIPLEN  ; YDIPLEN  >> (   0.13176):    4.669215547573E-05

@ QRLRVE:  << YDIPLEN  ; YDIPLEN  >> (   0.13176):     32.4277234234    

@ QRLRVE:  << ZDIPLEN  ; YDIPLEN  >> (   0.13176):    5.543270228969E-05


 QRLRVE -- linear response calculation for symmetry  1  ( A  )
 QRLRVE -- operator label : ZDIPLEN 
 QRLRVE -- operator spin  :   0
 QRLRVE -- frequencies :  0.000000  0.016470  0.032941  0.049411  0.065882
                          0.082352  0.098823  0.115293  0.131764



 ---  SOLVING SETS OF LINEAR EQUATIONS FOR LINEAR RESPONSE PROPERTIES ---

 Operator symmetry = 1  ( A  ); triplet =   F


 ** RSPCTL MICROITERATION NUMBER    1

       No.  Residual tot.,    conf., and orb.    Bnorm      Frequency 
      ----------------------------------------------------------------
         1    1.53616D+00  0.00D+00  1.54D+00  5.31D+00    0.00000D+00
         2    1.53789D+00  0.00D+00  1.54D+00  5.33D+00    1.64705D-02
         3    1.54314D+00  0.00D+00  1.54D+00  5.39D+00    3.29410D-02
         4    1.55204D+00  0.00D+00  1.55D+00  5.49D+00    4.94115D-02
         5    1.56482D+00  0.00D+00  1.56D+00  5.63D+00    6.58820D-02
         6    1.58186D+00  0.00D+00  1.58D+00  5.83D+00    8.23525D-02
         7    1.60371D+00  0.00D+00  1.60D+00  6.09D+00    9.88230D-02
         8    1.63119D+00  0.00D+00  1.63D+00  6.42D+00    1.15293D-01
         9    1.66556D+00  0.00D+00  1.67D+00  6.86D+00    1.31764D-01

 ** RSPCTL MICROITERATION NUMBER    2

       No.  Residual tot.,    conf., and orb.    Bnorm      Frequency 
      ----------------------------------------------------------------
         1    2.44306D-01  0.00D+00  2.44D-01  5.51D+00    0.00000D+00
         2    2.44615D-01  0.00D+00  2.45D-01  5.53D+00    1.64705D-02
         3    2.45544D-01  0.00D+00  2.46D-01  5.59D+00    3.29410D-02
         4    2.47106D-01  0.00D+00  2.47D-01  5.69D+00    4.94115D-02
         5    2.49320D-01  0.00D+00  2.49D-01  5.84D+00    6.58820D-02
         6    2.52216D-01  0.00D+00  2.52D-01  6.05D+00    8.23525D-02
         7    2.55832D-01  0.00D+00  2.56D-01  6.32D+00    9.88230D-02
         8    2.60223D-01  0.00D+00  2.60D-01  6.67D+00    1.15293D-01
         9    2.65461D-01  0.00D+00  2.65D-01  7.14D+00    1.31764D-01

 ** RSPCTL MICROITERATION NUMBER    3

       No.  Residual tot.,    conf., and orb.    Bnorm      Frequency 
      ----------------------------------------------------------------
         1    3.32993D-02  0.00D+00  3.33D-02  5.51D+00    0.00000D+00
         2    3.33497D-02  0.00D+00  3.33D-02  5.53D+00    1.64705D-02
         3    3.35019D-02  0.00D+00  3.35D-02  5.59D+00    3.29410D-02
         4    3.37599D-02  0.00D+00  3.38D-02  5.69D+00    4.94115D-02
         5    3.41304D-02  0.00D+00  3.41D-02  5.84D+00    6.58820D-02
         6    3.46240D-02  0.00D+00  3.46D-02  6.05D+00    8.23525D-02
         7    3.52563D-02  0.00D+00  3.53D-02  6.32D+00    9.88230D-02
         8    3.60507D-02  0.00D+00  3.61D-02  6.68D+00    1.15293D-01
         9    3.70423D-02  0.00D+00  3.70D-02  7.14D+00    1.31764D-01

 ** RSPCTL MICROITERATION NUMBER    4

       No.  Residual tot.,    conf., and orb.    Bnorm      Frequency 
      ----------------------------------------------------------------
         1    2.90787D-03  0.00D+00  2.91D-03  5.51D+00    0.00000D+00
         2    2.92066D-03  0.00D+00  2.92D-03  5.53D+00    1.64705D-02
         3    2.95974D-03  0.00D+00  2.96D-03  5.59D+00    3.29410D-02
         4    3.02727D-03  0.00D+00  3.03D-03  5.69D+00    4.94115D-02
         5    3.12720D-03  0.00D+00  3.13D-03  5.84D+00    6.58820D-02
         6    3.26572D-03  0.00D+00  3.27D-03  6.05D+00    8.23525D-02
         7    3.45218D-03  0.00D+00  3.45D-03  6.32D+00    9.88230D-02
         8    3.70061D-03  0.00D+00  3.70D-03  6.68D+00    1.15293D-01
         9    4.03227D-03  0.00D+00  4.03D-03  7.14D+00    1.31764D-01

 *** THE REQUESTED    9 SOLUTION VECTORS CONVERGED

 Convergence of RSP solution vectors, threshold = 1.00D-03
 ---------------------------------------------------------------
 (dimension of paired reduced space:   72)
 RSP solution vector no.    1; norm of residual   5.28D-04
 RSP solution vector no.    2; norm of residual   5.28D-04
 RSP solution vector no.    3; norm of residual   5.30D-04
 RSP solution vector no.    4; norm of residual   5.32D-04
 RSP solution vector no.    5; norm of residual   5.35D-04
 RSP solution vector no.    6; norm of residual   5.40D-04
 RSP solution vector no.    7; norm of residual   5.46D-04
 RSP solution vector no.    8; norm of residual   5.54D-04
 RSP solution vector no.    9; norm of residual   5.65D-04

 *** RSPCTL MICROITERATIONS CONVERGED

@ QRLRVE: SINGLET SOLUTION FOR SYMMETRY    1  ( A  )    LABEL   ZDIPLEN     FREQUENCY   0.000000D+00

@ QRLRVE:  << XDIPLEN  ; ZDIPLEN  >> (   0.00000):    3.364277051234E-04

@ QRLRVE:  << YDIPLEN  ; ZDIPLEN  >> (   0.00000):    2.958395253598E-04

@ QRLRVE:  << ZDIPLEN  ; ZDIPLEN  >> (   0.00000):     29.8204642153    

@ QRLRVE: SINGLET SOLUTION FOR SYMMETRY    1  ( A  )    LABEL   ZDIPLEN     FREQUENCY   0.164705D-01

@ QRLRVE:  << XDIPLEN  ; ZDIPLEN  >> (   0.01647):    3.354699226152E-04

@ QRLRVE:  << YDIPLEN  ; ZDIPLEN  >> (   0.01647):    2.988726061597E-04

@ QRLRVE:  << ZDIPLEN  ; ZDIPLEN  >> (   0.01647):     29.8715043060    

@ QRLRVE: SINGLET SOLUTION FOR SYMMETRY    1  ( A  )    LABEL   ZDIPLEN     FREQUENCY   0.329410D-01

@ QRLRVE:  << XDIPLEN  ; ZDIPLEN  >> (   0.03294):    3.325168811531E-04

@ QRLRVE:  << YDIPLEN  ; ZDIPLEN  >> (   0.03294):    3.081920737631E-04

@ QRLRVE:  << ZDIPLEN  ; ZDIPLEN  >> (   0.03294):     30.0262144767    

@ QRLRVE: SINGLET SOLUTION FOR SYMMETRY    1  ( A  )    LABEL   ZDIPLEN     FREQUENCY   0.494115D-01

@ QRLRVE:  << XDIPLEN  ; ZDIPLEN  >> (   0.04941):    3.273219549125E-04

@ QRLRVE:  << YDIPLEN  ; ZDIPLEN  >> (   0.04941):    3.244911297196E-04

@ QRLRVE:  << ZDIPLEN  ; ZDIPLEN  >> (   0.04941):     30.2895270839    

@ QRLRVE: SINGLET SOLUTION FOR SYMMETRY    1  ( A  )    LABEL   ZDIPLEN     FREQUENCY   0.658820D-01

@ QRLRVE:  << XDIPLEN  ; ZDIPLEN  >> (   0.06588):    3.194478215481E-04

@ QRLRVE:  << YDIPLEN  ; ZDIPLEN  >> (   0.06588):    3.490423832169E-04

@ QRLRVE:  << ZDIPLEN  ; ZDIPLEN  >> (   0.06588):     30.6702406217    

@ QRLRVE: SINGLET SOLUTION FOR SYMMETRY    1  ( A  )    LABEL   ZDIPLEN     FREQUENCY   0.823525D-01

@ QRLRVE:  << XDIPLEN  ; ZDIPLEN  >> (   0.08235):    3.082227784515E-04

@ QRLRVE:  << YDIPLEN  ; ZDIPLEN  >> (   0.08235):    3.839087386703E-04

@ QRLRVE:  << ZDIPLEN  ; ZDIPLEN  >> (   0.08235):     31.1820251362    

@ QRLRVE: SINGLET SOLUTION FOR SYMMETRY    1  ( A  )    LABEL   ZDIPLEN     FREQUENCY   0.988230D-01

@ QRLRVE:  << XDIPLEN  ; ZDIPLEN  >> (   0.09882):    2.926698269327E-04

@ QRLRVE:  << YDIPLEN  ; ZDIPLEN  >> (   0.09882):    4.323256837697E-04

@ QRLRVE:  << ZDIPLEN  ; ZDIPLEN  >> (   0.09882):     31.8451640786    

@ QRLRVE: SINGLET SOLUTION FOR SYMMETRY    1  ( A  )    LABEL   ZDIPLEN     FREQUENCY   0.115293D+00

@ QRLRVE:  << XDIPLEN  ; ZDIPLEN  >> (   0.11529):    2.713952411982E-04

@ QRLRVE:  << YDIPLEN  ; ZDIPLEN  >> (   0.11529):    4.993945686969E-04

@ QRLRVE:  << ZDIPLEN  ; ZDIPLEN  >> (   0.11529):     32.6895370749    

@ QRLRVE: SINGLET SOLUTION FOR SYMMETRY    1  ( A  )    LABEL   ZDIPLEN     FREQUENCY   0.131764D+00

@ QRLRVE:  << XDIPLEN  ; ZDIPLEN  >> (   0.13176):    2.424122255356E-04

@ QRLRVE:  << YDIPLEN  ; ZDIPLEN  >> (   0.13176):    5.933875617576E-04

@ QRLRVE:  << ZDIPLEN  ; ZDIPLEN  >> (   0.13176):     33.7598655393    
 
 ======================================================================
 ---  L I N E A R   R E S P O N S E   F U N C T I O N S --- 
 ======================================================================

 The -<<A;B>>(omega_b) functions from vectors generated
 in a *QUADRA calculation of <<A;B,C>>(omega_b,omega_c)

 Note: the accuracy of off-diagonal elements will be linear
 in the convergence threshold THCLR =  1.00D-03


 Perturbation symmetry.     KSYMOP:           1
 Perturbation spin symmetry.TRPLET:           F
 Orbital variables.         KZWOPT:         486
 Configuration variables.   KZCONF:           0
 Total number of variables. KZVAR :         486

@ Singlet linear response function in a.u.

@ A operator, symmetry, frequency:   XDIPLEN    1 -0.000000
@ B operator, symmetry, frequency:   XDIPLEN    1  0.000000

@ Value of linear response -<<A;B>>(omega):      29.163705649340

@ Singlet linear response function in a.u.

@ A operator, symmetry, frequency:   YDIPLEN    1 -0.000000
@ B operator, symmetry, frequency:   XDIPLEN    1  0.000000

@ Value of linear response -<<A;B>>(omega):       0.000221533821

@ Singlet linear response function in a.u.

@ A operator, symmetry, frequency:   ZDIPLEN    1 -0.000000
@ B operator, symmetry, frequency:   XDIPLEN    1  0.000000

@ Value of linear response -<<A;B>>(omega):      -0.000039786876

@ Singlet linear response function in a.u.

@ A operator, symmetry, frequency:   XDIPLEN    1 -0.016470
@ B operator, symmetry, frequency:   XDIPLEN    1  0.016470

@ Value of linear response -<<A;B>>(omega):      29.207745669223

@ Singlet linear response function in a.u.

@ A operator, symmetry, frequency:   YDIPLEN    1 -0.016470
@ B operator, symmetry, frequency:   XDIPLEN    1  0.016470

@ Value of linear response -<<A;B>>(omega):       0.000221993270

@ Singlet linear response function in a.u.

@ A operator, symmetry, frequency:   ZDIPLEN    1 -0.016470
@ B operator, symmetry, frequency:   XDIPLEN    1  0.016470

@ Value of linear response -<<A;B>>(omega):      -0.000041553437

@ Singlet linear response function in a.u.

@ A operator, symmetry, frequency:   XDIPLEN    1 -0.032941
@ B operator, symmetry, frequency:   XDIPLEN    1  0.032941

@ Value of linear response -<<A;B>>(omega):      29.340970563619

@ Singlet linear response function in a.u.

@ A operator, symmetry, frequency:   YDIPLEN    1 -0.032941
@ B operator, symmetry, frequency:   XDIPLEN    1  0.032941

@ Value of linear response -<<A;B>>(omega):       0.000223234334

@ Singlet linear response function in a.u.

@ A operator, symmetry, frequency:   ZDIPLEN    1 -0.032941
@ B operator, symmetry, frequency:   XDIPLEN    1  0.032941

@ Value of linear response -<<A;B>>(omega):      -0.000046938240

@ Singlet linear response function in a.u.

@ A operator, symmetry, frequency:   XDIPLEN    1 -0.049411
@ B operator, symmetry, frequency:   XDIPLEN    1  0.049411

@ Value of linear response -<<A;B>>(omega):      29.566784815394

@ Singlet linear response function in a.u.

@ A operator, symmetry, frequency:   YDIPLEN    1 -0.049411
@ B operator, symmetry, frequency:   XDIPLEN    1  0.049411

@ Value of linear response -<<A;B>>(omega):       0.000224804926

@ Singlet linear response function in a.u.

@ A operator, symmetry, frequency:   ZDIPLEN    1 -0.049411
@ B operator, symmetry, frequency:   XDIPLEN    1  0.049411

@ Value of linear response -<<A;B>>(omega):      -0.000056205222

@ Singlet linear response function in a.u.

@ A operator, symmetry, frequency:   XDIPLEN    1 -0.065882
@ B operator, symmetry, frequency:   XDIPLEN    1  0.065882

@ Value of linear response -<<A;B>>(omega):      29.891178739866

@ Singlet linear response function in a.u.

@ A operator, symmetry, frequency:   YDIPLEN    1 -0.065882
@ B operator, symmetry, frequency:   XDIPLEN    1  0.065882

@ Value of linear response -<<A;B>>(omega):       0.000225804213

@ Singlet linear response function in a.u.

@ A operator, symmetry, frequency:   ZDIPLEN    1 -0.065882
@ B operator, symmetry, frequency:   XDIPLEN    1  0.065882

@ Value of linear response -<<A;B>>(omega):      -0.000069824979

@ Singlet linear response function in a.u.

@ A operator, symmetry, frequency:   XDIPLEN    1 -0.000000
@ B operator, symmetry, frequency:   YDIPLEN    1  0.000000

@ Value of linear response -<<A;B>>(omega):       0.000017930537

@ Singlet linear response function in a.u.

@ A operator, symmetry, frequency:   YDIPLEN    1 -0.000000
@ B operator, symmetry, frequency:   YDIPLEN    1  0.000000

@ Value of linear response -<<A;B>>(omega):      29.164417909323

@ Singlet linear response function in a.u.

@ A operator, symmetry, frequency:   ZDIPLEN    1 -0.000000
@ B operator, symmetry, frequency:   YDIPLEN    1  0.000000

@ Value of linear response -<<A;B>>(omega):       0.000104663540

@ Singlet linear response function in a.u.

@ A operator, symmetry, frequency:   XDIPLEN    1 -0.016470
@ B operator, symmetry, frequency:   YDIPLEN    1  0.016470

@ Value of linear response -<<A;B>>(omega):       0.000018113524

@ Singlet linear response function in a.u.

@ A operator, symmetry, frequency:   YDIPLEN    1 -0.016470
@ B operator, symmetry, frequency:   YDIPLEN    1  0.016470

@ Value of linear response -<<A;B>>(omega):      29.208460053001

@ Singlet linear response function in a.u.

@ A operator, symmetry, frequency:   ZDIPLEN    1 -0.016470
@ B operator, symmetry, frequency:   YDIPLEN    1  0.016470

@ Value of linear response -<<A;B>>(omega):       0.000103862507

@ Singlet linear response function in a.u.

@ A operator, symmetry, frequency:   XDIPLEN    1 -0.032941
@ B operator, symmetry, frequency:   YDIPLEN    1  0.032941

@ Value of linear response -<<A;B>>(omega):       0.000018694943

@ Singlet linear response function in a.u.

@ A operator, symmetry, frequency:   YDIPLEN    1 -0.032941
@ B operator, symmetry, frequency:   YDIPLEN    1  0.032941

@ Value of linear response -<<A;B>>(omega):      29.341691386264

@ Singlet linear response function in a.u.

@ A operator, symmetry, frequency:   ZDIPLEN    1 -0.032941
@ B operator, symmetry, frequency:   YDIPLEN    1  0.032941

@ Value of linear response -<<A;B>>(omega):       0.000101435577

@ Singlet linear response function in a.u.

@ A operator, symmetry, frequency:   XDIPLEN    1 -0.049411
@ B operator, symmetry, frequency:   YDIPLEN    1  0.049411

@ Value of linear response -<<A;B>>(omega):       0.000019778994

@ Singlet linear response function in a.u.

@ A operator, symmetry, frequency:   YDIPLEN    1 -0.049411
@ B operator, symmetry, frequency:   YDIPLEN    1  0.049411

@ Value of linear response -<<A;B>>(omega):      29.567516599736

@ Singlet linear response function in a.u.

@ A operator, symmetry, frequency:   ZDIPLEN    1 -0.049411
@ B operator, symmetry, frequency:   YDIPLEN    1  0.049411

@ Value of linear response -<<A;B>>(omega):       0.000097318727

@ Singlet linear response function in a.u.

@ A operator, symmetry, frequency:   XDIPLEN    1 -0.065882
@ B operator, symmetry, frequency:   YDIPLEN    1  0.065882

@ Value of linear response -<<A;B>>(omega):       0.000021564004

@ Singlet linear response function in a.u.

@ A operator, symmetry, frequency:   YDIPLEN    1 -0.065882
@ B operator, symmetry, frequency:   YDIPLEN    1  0.065882

@ Value of linear response -<<A;B>>(omega):      29.891926373409

@ Singlet linear response function in a.u.

@ A operator, symmetry, frequency:   ZDIPLEN    1 -0.065882
@ B operator, symmetry, frequency:   YDIPLEN    1  0.065882

@ Value of linear response -<<A;B>>(omega):       0.000091435432

@ Singlet linear response function in a.u.

@ A operator, symmetry, frequency:   XDIPLEN    1 -0.000000
@ B operator, symmetry, frequency:   ZDIPLEN    1  0.000000

@ Value of linear response -<<A;B>>(omega):       0.000336427705

@ Singlet linear response function in a.u.

@ A operator, symmetry, frequency:   YDIPLEN    1 -0.000000
@ B operator, symmetry, frequency:   ZDIPLEN    1  0.000000

@ Value of linear response -<<A;B>>(omega):       0.000295839525

@ Singlet linear response function in a.u.

@ A operator, symmetry, frequency:   ZDIPLEN    1 -0.000000
@ B operator, symmetry, frequency:   ZDIPLEN    1  0.000000

@ Value of linear response -<<A;B>>(omega):      29.820464215286

@ Singlet linear response function in a.u.

@ A operator, symmetry, frequency:   XDIPLEN    1 -0.016470
@ B operator, symmetry, frequency:   ZDIPLEN    1  0.016470

@ Value of linear response -<<A;B>>(omega):       0.000335469923

@ Singlet linear response function in a.u.

@ A operator, symmetry, frequency:   YDIPLEN    1 -0.016470
@ B operator, symmetry, frequency:   ZDIPLEN    1  0.016470

@ Value of linear response -<<A;B>>(omega):       0.000298872606

@ Singlet linear response function in a.u.

@ A operator, symmetry, frequency:   ZDIPLEN    1 -0.016470
@ B operator, symmetry, frequency:   ZDIPLEN    1  0.016470

@ Value of linear response -<<A;B>>(omega):      29.871504305961

@ Singlet linear response function in a.u.

@ A operator, symmetry, frequency:   XDIPLEN    1 -0.032941
@ B operator, symmetry, frequency:   ZDIPLEN    1  0.032941

@ Value of linear response -<<A;B>>(omega):       0.000332516881

@ Singlet linear response function in a.u.

@ A operator, symmetry, frequency:   YDIPLEN    1 -0.032941
@ B operator, symmetry, frequency:   ZDIPLEN    1  0.032941

@ Value of linear response -<<A;B>>(omega):       0.000308192074

@ Singlet linear response function in a.u.

@ A operator, symmetry, frequency:   ZDIPLEN    1 -0.032941
@ B operator, symmetry, frequency:   ZDIPLEN    1  0.032941

@ Value of linear response -<<A;B>>(omega):      30.026214476693

@ Singlet linear response function in a.u.

@ A operator, symmetry, frequency:   XDIPLEN    1 -0.049411
@ B operator, symmetry, frequency:   ZDIPLEN    1  0.049411

@ Value of linear response -<<A;B>>(omega):       0.000327321955

@ Singlet linear response function in a.u.

@ A operator, symmetry, frequency:   YDIPLEN    1 -0.049411
@ B operator, symmetry, frequency:   ZDIPLEN    1  0.049411

@ Value of linear response -<<A;B>>(omega):       0.000324491130

@ Singlet linear response function in a.u.

@ A operator, symmetry, frequency:   ZDIPLEN    1 -0.049411
@ B operator, symmetry, frequency:   ZDIPLEN    1  0.049411

@ Value of linear response -<<A;B>>(omega):      30.289527083938

@ Singlet linear response function in a.u.

@ A operator, symmetry, frequency:   XDIPLEN    1 -0.065882
@ B operator, symmetry, frequency:   ZDIPLEN    1  0.065882

@ Value of linear response -<<A;B>>(omega):       0.000319447822

@ Singlet linear response function in a.u.

@ A operator, symmetry, frequency:   YDIPLEN    1 -0.065882
@ B operator, symmetry, frequency:   ZDIPLEN    1  0.065882

@ Value of linear response -<<A;B>>(omega):       0.000349042383

@ Singlet linear response function in a.u.

@ A operator, symmetry, frequency:   ZDIPLEN    1 -0.065882
@ B operator, symmetry, frequency:   ZDIPLEN    1  0.065882

@ Value of linear response -<<A;B>>(omega):      30.670240621720


  Results from quadratic response calculation
 --------------------------------------------

@ B-freq = 0.000000  C-freq = 0.000000     beta(X;X,X) =     -0.00281101
@ B-freq = 0.000000  C-freq = 0.000000     beta(Y;X,X) =    -17.40247819
@ B-freq = 0.000000  C-freq = 0.000000     beta(Z;X,X) =     -0.10274951
@ B-freq = 0.016470  C-freq = 0.000000     beta(X;X,X) =     -0.00283388
@ B-freq = 0.016470  C-freq = 0.000000     beta(Y;X,X) =    -17.48834784
@ B-freq = 0.016470  C-freq = 0.000000     beta(Z;X,X) =     -0.12841668
@ B-freq = 0.032941  C-freq = 0.000000     beta(X;X,X) =     -0.00290284
@ B-freq = 0.032941  C-freq = 0.000000     beta(Y;X,X) =    -17.74972329
@ B-freq = 0.032941  C-freq = 0.000000     beta(Z;X,X) =     -0.20806366
@ B-freq = 0.049411  C-freq = 0.000000     beta(X;X,X) =     -0.00301867
@ B-freq = 0.049411  C-freq = 0.000000     beta(Y;X,X) =    -18.19827265
@ B-freq = 0.049411  C-freq = 0.000000     beta(Z;X,X) =     -0.35010944
@ B-freq = 0.065882  C-freq = 0.000000     beta(X;X,X) =     -0.00318190
@ B-freq = 0.065882  C-freq = 0.000000     beta(Y;X,X) =    -18.85473379
@ B-freq = 0.065882  C-freq = 0.000000     beta(Z;X,X) =     -0.57034248
@ B-freq = 0.000000  C-freq = 0.000000     beta(X;Y,X) = beta(Y,X,X)
@ B-freq = 0.000000  C-freq = 0.000000     beta(X;Y,X) =    -17.40247783
@ B-freq = 0.000000  C-freq = 0.000000     beta(Y;Y,X) =     -0.00115064
@ B-freq = 0.000000  C-freq = 0.000000     beta(Z;Y,X) =      0.00095400
@ B-freq = 0.016470  C-freq = 0.000000     beta(X;Y,X) =    -17.48834747
@ B-freq = 0.016470  C-freq = 0.000000     beta(Y;Y,X) =     -0.00114148
@ B-freq = 0.016470  C-freq = 0.000000     beta(Z;Y,X) =      0.00095864
@ B-freq = 0.032941  C-freq = 0.000000     beta(X;Y,X) =    -17.74972290
@ B-freq = 0.032941  C-freq = 0.000000     beta(Y;Y,X) =     -0.00111297
@ B-freq = 0.032941  C-freq = 0.000000     beta(Z;Y,X) =      0.00097312
@ B-freq = 0.049411  C-freq = 0.000000     beta(X;Y,X) =    -18.19827224
@ B-freq = 0.049411  C-freq = 0.000000     beta(Y;Y,X) =     -0.00106186
@ B-freq = 0.049411  C-freq = 0.000000     beta(Z;Y,X) =      0.00099929
@ B-freq = 0.065882  C-freq = 0.000000     beta(X;Y,X) =    -18.85473333
@ B-freq = 0.065882  C-freq = 0.000000     beta(Y;Y,X) =     -0.00098226
@ B-freq = 0.065882  C-freq = 0.000000     beta(Z;Y,X) =      0.00104082
@ B-freq = 0.000000  C-freq = 0.000000     beta(X;Z,X) = beta(Z,X,X)
@ B-freq = 0.000000  C-freq = 0.000000     beta(Y;Z,X) = beta(Z,Y,X)
@ B-freq = 0.000000  C-freq = 0.000000     beta(X;Z,X) =     -0.10276023
@ B-freq = 0.000000  C-freq = 0.000000     beta(Y;Z,X) =      0.00095447
@ B-freq = 0.000000  C-freq = 0.000000     beta(Z;Z,X) =     -0.00215835
@ B-freq = 0.016470  C-freq = 0.000000     beta(X;Z,X) =     -0.12842747
@ B-freq = 0.016470  C-freq = 0.000000     beta(Y;Z,X) =      0.00095911
@ B-freq = 0.016470  C-freq = 0.000000     beta(Z;Z,X) =     -0.00220415
@ B-freq = 0.032941  C-freq = 0.000000     beta(X;Z,X) =     -0.20807468
@ B-freq = 0.032941  C-freq = 0.000000     beta(Y;Z,X) =      0.00097361
@ B-freq = 0.032941  C-freq = 0.000000     beta(Z;Z,X) =     -0.00234759
@ B-freq = 0.049411  C-freq = 0.000000     beta(X;Z,X) =     -0.35012086
@ B-freq = 0.049411  C-freq = 0.000000     beta(Y;Z,X) =      0.00099981
@ B-freq = 0.049411  C-freq = 0.000000     beta(Z;Z,X) =     -0.00260803
[...]
@ B-freq = 0.049411  C-freq = 0.049411     beta(X;Z,Y) =      0.00118876
@ B-freq = 0.049411  C-freq = 0.049411     beta(Y;Z,Y) =      0.03145694
@ B-freq = 0.049411  C-freq = 0.049411     beta(Z;Z,Y) =      0.01364650
@ B-freq = 0.065882  C-freq = 0.049411     beta(X;Z,Y) =      0.00126452
@ B-freq = 0.065882  C-freq = 0.049411     beta(Y;Z,Y) =     -0.17916379
@ B-freq = 0.065882  C-freq = 0.049411     beta(Z;Z,Y) =      0.01616146
@ B-freq = 0.000000  C-freq = 0.065882     beta(X;X,Y) = beta(X,Y,X)
@ B-freq = 0.000000  C-freq = 0.065882     beta(Y;X,Y) = beta(Y,Y,X)
@ B-freq = 0.000000  C-freq = 0.065882     beta(Z;X,Y) = beta(Z,Y,X)
@ B-freq = 0.016470  C-freq = 0.065882     beta(X;X,Y) = beta(X,Y,X)
@ B-freq = 0.016470  C-freq = 0.065882     beta(Y;X,Y) = beta(Y,Y,X)
@ B-freq = 0.016470  C-freq = 0.065882     beta(Z;X,Y) = beta(Z,Y,X)
@ B-freq = 0.032941  C-freq = 0.065882     beta(X;X,Y) = beta(X,Y,X)
@ B-freq = 0.032941  C-freq = 0.065882     beta(Y;X,Y) = beta(Y,Y,X)
@ B-freq = 0.032941  C-freq = 0.065882     beta(Z;X,Y) = beta(Z,Y,X)
@ B-freq = 0.049411  C-freq = 0.065882     beta(X;X,Y) = beta(X,Y,X)
@ B-freq = 0.049411  C-freq = 0.065882     beta(Y;X,Y) = beta(Y,Y,X)
@ B-freq = 0.049411  C-freq = 0.065882     beta(Z;X,Y) = beta(Z,Y,X)
@ B-freq = 0.065882  C-freq = 0.065882     beta(X;X,Y) = beta(X,Y,X)
@ B-freq = 0.065882  C-freq = 0.065882     beta(Y;X,Y) = beta(Y,Y,X)
@ B-freq = 0.065882  C-freq = 0.065882     beta(Z;X,Y) = beta(Z,Y,X)
@ B-freq = 0.000000  C-freq = 0.065882     beta(X;Y,Y) = beta(X,Y,Y)
@ B-freq = 0.000000  C-freq = 0.065882     beta(Y;Y,Y) = beta(Y,Y,Y)
@ B-freq = 0.000000  C-freq = 0.065882     beta(Z;Y,Y) = beta(Z,Y,Y)
@ B-freq = 0.016470  C-freq = 0.065882     beta(X;Y,Y) = beta(X,Y,Y)
@ B-freq = 0.016470  C-freq = 0.065882     beta(Y;Y,Y) = beta(Y,Y,Y)
@ B-freq = 0.016470  C-freq = 0.065882     beta(Z;Y,Y) = beta(Z,Y,Y)
@ B-freq = 0.032941  C-freq = 0.065882     beta(X;Y,Y) = beta(X,Y,Y)
@ B-freq = 0.032941  C-freq = 0.065882     beta(Y;Y,Y) = beta(Y,Y,Y)
@ B-freq = 0.032941  C-freq = 0.065882     beta(Z;Y,Y) = beta(Z,Y,Y)
@ B-freq = 0.049411  C-freq = 0.065882     beta(X;Y,Y) = beta(X,Y,Y)
@ B-freq = 0.049411  C-freq = 0.065882     beta(Y;Y,Y) = beta(Y,Y,Y)
@ B-freq = 0.049411  C-freq = 0.065882     beta(Z;Y,Y) = beta(Z,Y,Y)
@ B-freq = 0.065882  C-freq = 0.065882     beta(X;Y,Y) =     -0.00115843
@ B-freq = 0.065882  C-freq = 0.065882     beta(Y;Y,Y) =     22.34555048
@ B-freq = 0.065882  C-freq = 0.065882     beta(Z;Y,Y) =     -2.83801460
@ B-freq = 0.000000  C-freq = 0.065882     beta(X;Z,Y) =      0.00111297
@ B-freq = 0.000000  C-freq = 0.065882     beta(Y;Z,Y) =      0.27791860
@ B-freq = 0.000000  C-freq = 0.065882     beta(Z;Z,Y) =      0.01014876
@ B-freq = 0.016470  C-freq = 0.065882     beta(X;Z,Y) =      0.00115919
@ B-freq = 0.016470  C-freq = 0.065882     beta(Y;Z,Y) =      0.35364782
@ B-freq = 0.016470  C-freq = 0.065882     beta(Z;Z,Y) =      0.01109511
@ B-freq = 0.032941  C-freq = 0.065882     beta(X;Z,Y) =      0.00121520
@ B-freq = 0.032941  C-freq = 0.065882     beta(Y;Z,Y) =      0.36209940
@ B-freq = 0.032941  C-freq = 0.065882     beta(Z;Z,Y) =      0.01256263
@ B-freq = 0.049411  C-freq = 0.065882     beta(X;Z,Y) =      0.00127925
@ B-freq = 0.049411  C-freq = 0.065882     beta(Y;Z,Y) =      0.27893659
@ B-freq = 0.049411  C-freq = 0.065882     beta(Z;Z,Y) =      0.01472946
@ B-freq = 0.065882  C-freq = 0.065882     beta(X;Z,Y) =      0.00134637
@ B-freq = 0.065882  C-freq = 0.065882     beta(Y;Z,Y) =      0.05935298
@ B-freq = 0.065882  C-freq = 0.065882     beta(Z;Z,Y) =      0.01788949
@ B-freq = 0.000000  C-freq = 0.000000     beta(X;X,Z) = beta(Z,X,X)
@ B-freq = 0.000000  C-freq = 0.000000     beta(Y;X,Z) = beta(Z,Y,X)
@ B-freq = 0.000000  C-freq = 0.000000     beta(Z;X,Z) = beta(Z,Z,X)
@ B-freq = 0.016470  C-freq = 0.000000     beta(X;X,Z) = beta(X,Z,X)
@ B-freq = 0.016470  C-freq = 0.000000     beta(Y;X,Z) = beta(Y,Z,X)
@ B-freq = 0.016470  C-freq = 0.000000     beta(Z;X,Z) = beta(Z,Z,X)
@ B-freq = 0.032941  C-freq = 0.000000     beta(X;X,Z) = beta(X,Z,X)
@ B-freq = 0.032941  C-freq = 0.000000     beta(Y;X,Z) = beta(Y,Z,X)
@ B-freq = 0.032941  C-freq = 0.000000     beta(Z;X,Z) = beta(Z,Z,X)
@ B-freq = 0.049411  C-freq = 0.000000     beta(X;X,Z) = beta(X,Z,X)
@ B-freq = 0.049411  C-freq = 0.000000     beta(Y;X,Z) = beta(Y,Z,X)
@ B-freq = 0.049411  C-freq = 0.000000     beta(Z;X,Z) = beta(Z,Z,X)
@ B-freq = 0.065882  C-freq = 0.000000     beta(X;X,Z) = beta(X,Z,X)
@ B-freq = 0.065882  C-freq = 0.000000     beta(Y;X,Z) = beta(Y,Z,X)
@ B-freq = 0.065882  C-freq = 0.000000     beta(Z;X,Z) = beta(Z,Z,X)
@ B-freq = 0.000000  C-freq = 0.000000     beta(X;Y,Z) = beta(Z,Y,X)
@ B-freq = 0.000000  C-freq = 0.000000     beta(Y;Y,Z) = beta(Z,Y,Y)
@ B-freq = 0.000000  C-freq = 0.000000     beta(Z;Y,Z) = beta(Z,Z,Y)
@ B-freq = 0.016470  C-freq = 0.000000     beta(X;Y,Z) = beta(X,Z,Y)
@ B-freq = 0.016470  C-freq = 0.000000     beta(Y;Y,Z) = beta(Y,Z,Y)
@ B-freq = 0.016470  C-freq = 0.000000     beta(Z;Y,Z) = beta(Z,Z,Y)
@ B-freq = 0.032941  C-freq = 0.000000     beta(X;Y,Z) = beta(X,Z,Y)
@ B-freq = 0.032941  C-freq = 0.000000     beta(Y;Y,Z) = beta(Y,Z,Y)
@ B-freq = 0.032941  C-freq = 0.000000     beta(Z;Y,Z) = beta(Z,Z,Y)
@ B-freq = 0.049411  C-freq = 0.000000     beta(X;Y,Z) = beta(X,Z,Y)
@ B-freq = 0.049411  C-freq = 0.000000     beta(Y;Y,Z) = beta(Y,Z,Y)
@ B-freq = 0.049411  C-freq = 0.000000     beta(Z;Y,Z) = beta(Z,Z,Y)
@ B-freq = 0.065882  C-freq = 0.000000     beta(X;Y,Z) = beta(X,Z,Y)
@ B-freq = 0.065882  C-freq = 0.000000     beta(Y;Y,Z) = beta(Y,Z,Y)
@ B-freq = 0.065882  C-freq = 0.000000     beta(Z;Y,Z) = beta(Z,Z,Y)
@ B-freq = 0.000000  C-freq = 0.000000     beta(X;Z,Z) = beta(Z,Z,X)
@ B-freq = 0.000000  C-freq = 0.000000     beta(Y;Z,Z) = beta(Z,Z,Y)
@ B-freq = 0.000000  C-freq = 0.000000     beta(X;Z,Z) =     -0.00215898
@ B-freq = 0.000000  C-freq = 0.000000     beta(Y;Z,Z) =      0.00993189
@ B-freq = 0.000000  C-freq = 0.000000     beta(Z;Z,Z) =    -22.79786716
@ B-freq = 0.016470  C-freq = 0.000000     beta(X;Z,Z) =     -0.00217154
@ B-freq = 0.016470  C-freq = 0.000000     beta(Y;Z,Z) =      0.00994777
@ B-freq = 0.016470  C-freq = 0.000000     beta(Z;Z,Z) =    -22.93448079
@ B-freq = 0.032941  C-freq = 0.000000     beta(X;Z,Z) =     -0.00221010
@ B-freq = 0.032941  C-freq = 0.000000     beta(Y;Z,Z) =      0.00999380
@ B-freq = 0.032941  C-freq = 0.000000     beta(Z;Z,Z) =    -23.35153898
@ B-freq = 0.049411  C-freq = 0.000000     beta(X;Z,Z) =     -0.00227739
@ B-freq = 0.049411  C-freq = 0.000000     beta(Y;Z,Z) =      0.01006447
@ B-freq = 0.049411  C-freq = 0.000000     beta(Z;Z,Z) =    -24.07149892
@ B-freq = 0.065882  C-freq = 0.000000     beta(X;Z,Z) =     -0.00237848
@ B-freq = 0.065882  C-freq = 0.000000     beta(Y;Z,Z) =      0.01014854
@ B-freq = 0.065882  C-freq = 0.000000     beta(Z;Z,Z) =    -25.13461763
@ B-freq = 0.000000  C-freq = 0.016470     beta(X;X,Z) = beta(X,Z,X)
@ B-freq = 0.000000  C-freq = 0.016470     beta(Y;X,Z) = beta(Y,Z,X)
@ B-freq = 0.000000  C-freq = 0.016470     beta(Z;X,Z) = beta(Z,Z,X)
@ B-freq = 0.016470  C-freq = 0.016470     beta(X;X,Z) = beta(X,Z,X)
@ B-freq = 0.016470  C-freq = 0.016470     beta(Y;X,Z) = beta(Y,Z,X)
@ B-freq = 0.016470  C-freq = 0.016470     beta(Z;X,Z) = beta(Z,Z,X)
@ B-freq = 0.032941  C-freq = 0.016470     beta(X;X,Z) = beta(X,Z,X)
@ B-freq = 0.032941  C-freq = 0.016470     beta(Y;X,Z) = beta(Y,Z,X)
@ B-freq = 0.032941  C-freq = 0.016470     beta(Z;X,Z) = beta(Z,Z,X)
@ B-freq = 0.049411  C-freq = 0.016470     beta(X;X,Z) = beta(X,Z,X)
@ B-freq = 0.049411  C-freq = 0.016470     beta(Y;X,Z) = beta(Y,Z,X)
@ B-freq = 0.049411  C-freq = 0.016470     beta(Z;X,Z) = beta(Z,Z,X)
@ B-freq = 0.065882  C-freq = 0.016470     beta(X;X,Z) = beta(X,Z,X)
@ B-freq = 0.065882  C-freq = 0.016470     beta(Y;X,Z) = beta(Y,Z,X)
@ B-freq = 0.065882  C-freq = 0.016470     beta(Z;X,Z) = beta(Z,Z,X)
@ B-freq = 0.000000  C-freq = 0.016470     beta(X;Y,Z) = beta(X,Z,Y)
@ B-freq = 0.000000  C-freq = 0.016470     beta(Y;Y,Z) = beta(Y,Z,Y)
@ B-freq = 0.000000  C-freq = 0.016470     beta(Z;Y,Z) = beta(Z,Z,Y)
@ B-freq = 0.016470  C-freq = 0.016470     beta(X;Y,Z) = beta(X,Z,Y)
@ B-freq = 0.016470  C-freq = 0.016470     beta(Y;Y,Z) = beta(Y,Z,Y)
@ B-freq = 0.016470  C-freq = 0.016470     beta(Z;Y,Z) = beta(Z,Z,Y)
@ B-freq = 0.032941  C-freq = 0.016470     beta(X;Y,Z) = beta(X,Z,Y)
@ B-freq = 0.032941  C-freq = 0.016470     beta(Y;Y,Z) = beta(Y,Z,Y)
@ B-freq = 0.032941  C-freq = 0.016470     beta(Z;Y,Z) = beta(Z,Z,Y)
@ B-freq = 0.049411  C-freq = 0.016470     beta(X;Y,Z) = beta(X,Z,Y)
@ B-freq = 0.049411  C-freq = 0.016470     beta(Y;Y,Z) = beta(Y,Z,Y)
@ B-freq = 0.049411  C-freq = 0.016470     beta(Z;Y,Z) = beta(Z,Z,Y)
@ B-freq = 0.065882  C-freq = 0.016470     beta(X;Y,Z) = beta(X,Z,Y)
@ B-freq = 0.065882  C-freq = 0.016470     beta(Y;Y,Z) = beta(Y,Z,Y)
@ B-freq = 0.065882  C-freq = 0.016470     beta(Z;Y,Z) = beta(Z,Z,Y)
@ B-freq = 0.000000  C-freq = 0.016470     beta(X;Z,Z) = beta(X,Z,Z)
@ B-freq = 0.000000  C-freq = 0.016470     beta(Y;Z,Z) = beta(Y,Z,Z)
@ B-freq = 0.000000  C-freq = 0.016470     beta(Z;Z,Z) = beta(Z,Z,Z)
@ B-freq = 0.016470  C-freq = 0.016470     beta(X;Z,Z) =     -0.00216384
@ B-freq = 0.016470  C-freq = 0.016470     beta(Y;Z,Z) =      0.00983157
@ B-freq = 0.016470  C-freq = 0.016470     beta(Z;Z,Z) =    -23.21130719
@ B-freq = 0.032941  C-freq = 0.016470     beta(X;Z,Z) =     -0.00218219
@ B-freq = 0.032941  C-freq = 0.016470     beta(Y;Z,Z) =      0.00972855
@ B-freq = 0.032941  C-freq = 0.016470     beta(Z;Z,Z) =    -23.77973731
@ B-freq = 0.049411  C-freq = 0.016470     beta(X;Z,Z) =     -0.00222908
@ B-freq = 0.049411  C-freq = 0.016470     beta(Y;Z,Z) =      0.00961786
@ B-freq = 0.049411  C-freq = 0.016470     beta(Z;Z,Z) =    -24.67099718
@ B-freq = 0.065882  C-freq = 0.016470     beta(X;Z,Z) =     -0.00230954
@ B-freq = 0.065882  C-freq = 0.016470     beta(Y;Z,Z) =      0.00946696
@ B-freq = 0.065882  C-freq = 0.016470     beta(Z;Z,Z) =    -25.93640718
@ B-freq = 0.000000  C-freq = 0.032941     beta(X;X,Z) = beta(X,Z,X)
@ B-freq = 0.000000  C-freq = 0.032941     beta(Y;X,Z) = beta(Y,Z,X)
@ B-freq = 0.000000  C-freq = 0.032941     beta(Z;X,Z) = beta(Z,Z,X)
@ B-freq = 0.016470  C-freq = 0.032941     beta(X;X,Z) = beta(X,Z,X)
@ B-freq = 0.016470  C-freq = 0.032941     beta(Y;X,Z) = beta(Y,Z,X)
@ B-freq = 0.016470  C-freq = 0.032941     beta(Z;X,Z) = beta(Z,Z,X)
@ B-freq = 0.032941  C-freq = 0.032941     beta(X;X,Z) = beta(X,Z,X)
@ B-freq = 0.032941  C-freq = 0.032941     beta(Y;X,Z) = beta(Y,Z,X)
@ B-freq = 0.032941  C-freq = 0.032941     beta(Z;X,Z) = beta(Z,Z,X)
@ B-freq = 0.049411  C-freq = 0.032941     beta(X;X,Z) = beta(X,Z,X)
@ B-freq = 0.049411  C-freq = 0.032941     beta(Y;X,Z) = beta(Y,Z,X)
@ B-freq = 0.049411  C-freq = 0.032941     beta(Z;X,Z) = beta(Z,Z,X)
@ B-freq = 0.065882  C-freq = 0.032941     beta(X;X,Z) = beta(X,Z,X)
@ B-freq = 0.065882  C-freq = 0.032941     beta(Y;X,Z) = beta(Y,Z,X)
@ B-freq = 0.065882  C-freq = 0.032941     beta(Z;X,Z) = beta(Z,Z,X)
@ B-freq = 0.000000  C-freq = 0.032941     beta(X;Y,Z) = beta(X,Z,Y)
@ B-freq = 0.000000  C-freq = 0.032941     beta(Y;Y,Z) = beta(Y,Z,Y)
@ B-freq = 0.000000  C-freq = 0.032941     beta(Z;Y,Z) = beta(Z,Z,Y)
@ B-freq = 0.016470  C-freq = 0.032941     beta(X;Y,Z) = beta(X,Z,Y)
@ B-freq = 0.016470  C-freq = 0.032941     beta(Y;Y,Z) = beta(Y,Z,Y)
@ B-freq = 0.016470  C-freq = 0.032941     beta(Z;Y,Z) = beta(Z,Z,Y)
@ B-freq = 0.032941  C-freq = 0.032941     beta(X;Y,Z) = beta(X,Z,Y)
@ B-freq = 0.032941  C-freq = 0.032941     beta(Y;Y,Z) = beta(Y,Z,Y)
@ B-freq = 0.032941  C-freq = 0.032941     beta(Z;Y,Z) = beta(Z,Z,Y)
@ B-freq = 0.049411  C-freq = 0.032941     beta(X;Y,Z) = beta(X,Z,Y)
@ B-freq = 0.049411  C-freq = 0.032941     beta(Y;Y,Z) = beta(Y,Z,Y)
@ B-freq = 0.049411  C-freq = 0.032941     beta(Z;Y,Z) = beta(Z,Z,Y)
@ B-freq = 0.065882  C-freq = 0.032941     beta(X;Y,Z) = beta(X,Z,Y)
@ B-freq = 0.065882  C-freq = 0.032941     beta(Y;Y,Z) = beta(Y,Z,Y)
@ B-freq = 0.065882  C-freq = 0.032941     beta(Z;Y,Z) = beta(Z,Z,Y)
@ B-freq = 0.000000  C-freq = 0.032941     beta(X;Z,Z) = beta(X,Z,Z)
@ B-freq = 0.000000  C-freq = 0.032941     beta(Y;Z,Z) = beta(Y,Z,Z)
@ B-freq = 0.000000  C-freq = 0.032941     beta(Z;Z,Z) = beta(Z,Z,Z)
@ B-freq = 0.016470  C-freq = 0.032941     beta(X;Z,Z) = beta(X,Z,Z)
@ B-freq = 0.016470  C-freq = 0.032941     beta(Y;Z,Z) = beta(Y,Z,Z)
@ B-freq = 0.016470  C-freq = 0.032941     beta(Z;Z,Z) = beta(Z,Z,Z)
@ B-freq = 0.032941  C-freq = 0.032941     beta(X;Z,Z) =     -0.00218148
@ B-freq = 0.032941  C-freq = 0.032941     beta(Y;Z,Z) =      0.00944681
@ B-freq = 0.032941  C-freq = 0.032941     beta(Z;Z,Z) =    -24.51926407
@ B-freq = 0.049411  C-freq = 0.032941     beta(X;Z,Z) =     -0.00221066
@ B-freq = 0.049411  C-freq = 0.032941     beta(Y;Z,Z) =      0.00910716
@ B-freq = 0.049411  C-freq = 0.032941     beta(Z;Z,Z) =    -25.61206361
@ B-freq = 0.065882  C-freq = 0.032941     beta(X;Z,Z) =     -0.00227556
@ B-freq = 0.065882  C-freq = 0.032941     beta(Y;Z,Z) =      0.00864642
@ B-freq = 0.065882  C-freq = 0.032941     beta(Z;Z,Z) =    -27.12376719
@ B-freq = 0.000000  C-freq = 0.049411     beta(X;X,Z) = beta(X,Z,X)
@ B-freq = 0.000000  C-freq = 0.049411     beta(Y;X,Z) = beta(Y,Z,X)
@ B-freq = 0.000000  C-freq = 0.049411     beta(Z;X,Z) = beta(Z,Z,X)
@ B-freq = 0.016470  C-freq = 0.049411     beta(X;X,Z) = beta(X,Z,X)
@ B-freq = 0.016470  C-freq = 0.049411     beta(Y;X,Z) = beta(Y,Z,X)
@ B-freq = 0.016470  C-freq = 0.049411     beta(Z;X,Z) = beta(Z,Z,X)
@ B-freq = 0.032941  C-freq = 0.049411     beta(X;X,Z) = beta(X,Z,X)
@ B-freq = 0.032941  C-freq = 0.049411     beta(Y;X,Z) = beta(Y,Z,X)
@ B-freq = 0.032941  C-freq = 0.049411     beta(Z;X,Z) = beta(Z,Z,X)
@ B-freq = 0.049411  C-freq = 0.049411     beta(X;X,Z) = beta(X,Z,X)
@ B-freq = 0.049411  C-freq = 0.049411     beta(Y;X,Z) = beta(Y,Z,X)
@ B-freq = 0.049411  C-freq = 0.049411     beta(Z;X,Z) = beta(Z,Z,X)
@ B-freq = 0.065882  C-freq = 0.049411     beta(X;X,Z) = beta(X,Z,X)
@ B-freq = 0.065882  C-freq = 0.049411     beta(Y;X,Z) = beta(Y,Z,X)
@ B-freq = 0.065882  C-freq = 0.049411     beta(Z;X,Z) = beta(Z,Z,X)
@ B-freq = 0.000000  C-freq = 0.049411     beta(X;Y,Z) = beta(X,Z,Y)
@ B-freq = 0.000000  C-freq = 0.049411     beta(Y;Y,Z) = beta(Y,Z,Y)
@ B-freq = 0.000000  C-freq = 0.049411     beta(Z;Y,Z) = beta(Z,Z,Y)
@ B-freq = 0.016470  C-freq = 0.049411     beta(X;Y,Z) = beta(X,Z,Y)
@ B-freq = 0.016470  C-freq = 0.049411     beta(Y;Y,Z) = beta(Y,Z,Y)
@ B-freq = 0.016470  C-freq = 0.049411     beta(Z;Y,Z) = beta(Z,Z,Y)
@ B-freq = 0.032941  C-freq = 0.049411     beta(X;Y,Z) = beta(X,Z,Y)
@ B-freq = 0.032941  C-freq = 0.049411     beta(Y;Y,Z) = beta(Y,Z,Y)
@ B-freq = 0.032941  C-freq = 0.049411     beta(Z;Y,Z) = beta(Z,Z,Y)
@ B-freq = 0.049411  C-freq = 0.049411     beta(X;Y,Z) = beta(X,Z,Y)
@ B-freq = 0.049411  C-freq = 0.049411     beta(Y;Y,Z) = beta(Y,Z,Y)
@ B-freq = 0.049411  C-freq = 0.049411     beta(Z;Y,Z) = beta(Z,Z,Y)
@ B-freq = 0.065882  C-freq = 0.049411     beta(X;Y,Z) = beta(X,Z,Y)
@ B-freq = 0.065882  C-freq = 0.049411     beta(Y;Y,Z) = beta(Y,Z,Y)
@ B-freq = 0.065882  C-freq = 0.049411     beta(Z;Y,Z) = beta(Z,Z,Y)
@ B-freq = 0.000000  C-freq = 0.049411     beta(X;Z,Z) = beta(X,Z,Z)
@ B-freq = 0.000000  C-freq = 0.049411     beta(Y;Z,Z) = beta(Y,Z,Z)
@ B-freq = 0.000000  C-freq = 0.049411     beta(Z;Z,Z) = beta(Z,Z,Z)
@ B-freq = 0.016470  C-freq = 0.049411     beta(X;Z,Z) = beta(X,Z,Z)
@ B-freq = 0.016470  C-freq = 0.049411     beta(Y;Z,Z) = beta(Y,Z,Z)
@ B-freq = 0.016470  C-freq = 0.049411     beta(Z;Z,Z) = beta(Z,Z,Z)
@ B-freq = 0.032941  C-freq = 0.049411     beta(X;Z,Z) = beta(X,Z,Z)
@ B-freq = 0.032941  C-freq = 0.049411     beta(Y;Z,Z) = beta(Y,Z,Z)
@ B-freq = 0.032941  C-freq = 0.049411     beta(Z;Z,Z) = beta(Z,Z,Z)
@ B-freq = 0.049411  C-freq = 0.049411     beta(X;Z,Z) =     -0.00222579
@ B-freq = 0.049411  C-freq = 0.049411     beta(Y;Z,Z) =      0.00846106
@ B-freq = 0.049411  C-freq = 0.049411     beta(Z;Z,Z) =    -26.95052330
@ B-freq = 0.065882  C-freq = 0.049411     beta(X;Z,Z) =     -0.00228282
@ B-freq = 0.065882  C-freq = 0.049411     beta(Y;Z,Z) =      0.00756980
@ B-freq = 0.065882  C-freq = 0.049411     beta(Z;Z,Z) =    -28.77141693
@ B-freq = 0.000000  C-freq = 0.065882     beta(X;X,Z) = beta(X,Z,X)
@ B-freq = 0.000000  C-freq = 0.065882     beta(Y;X,Z) = beta(Y,Z,X)
@ B-freq = 0.000000  C-freq = 0.065882     beta(Z;X,Z) = beta(Z,Z,X)
@ B-freq = 0.016470  C-freq = 0.065882     beta(X;X,Z) = beta(X,Z,X)
@ B-freq = 0.016470  C-freq = 0.065882     beta(Y;X,Z) = beta(Y,Z,X)
@ B-freq = 0.016470  C-freq = 0.065882     beta(Z;X,Z) = beta(Z,Z,X)
@ B-freq = 0.032941  C-freq = 0.065882     beta(X;X,Z) = beta(X,Z,X)
@ B-freq = 0.032941  C-freq = 0.065882     beta(Y;X,Z) = beta(Y,Z,X)
@ B-freq = 0.032941  C-freq = 0.065882     beta(Z;X,Z) = beta(Z,Z,X)
@ B-freq = 0.049411  C-freq = 0.065882     beta(X;X,Z) = beta(X,Z,X)
@ B-freq = 0.049411  C-freq = 0.065882     beta(Y;X,Z) = beta(Y,Z,X)
@ B-freq = 0.049411  C-freq = 0.065882     beta(Z;X,Z) = beta(Z,Z,X)
@ B-freq = 0.065882  C-freq = 0.065882     beta(X;X,Z) = beta(X,Z,X)
@ B-freq = 0.065882  C-freq = 0.065882     beta(Y;X,Z) = beta(Y,Z,X)
@ B-freq = 0.065882  C-freq = 0.065882     beta(Z;X,Z) = beta(Z,Z,X)
@ B-freq = 0.000000  C-freq = 0.065882     beta(X;Y,Z) = beta(X,Z,Y)
@ B-freq = 0.000000  C-freq = 0.065882     beta(Y;Y,Z) = beta(Y,Z,Y)
@ B-freq = 0.000000  C-freq = 0.065882     beta(Z;Y,Z) = beta(Z,Z,Y)
@ B-freq = 0.016470  C-freq = 0.065882     beta(X;Y,Z) = beta(X,Z,Y)
@ B-freq = 0.016470  C-freq = 0.065882     beta(Y;Y,Z) = beta(Y,Z,Y)
@ B-freq = 0.016470  C-freq = 0.065882     beta(Z;Y,Z) = beta(Z,Z,Y)
@ B-freq = 0.032941  C-freq = 0.065882     beta(X;Y,Z) = beta(X,Z,Y)
@ B-freq = 0.032941  C-freq = 0.065882     beta(Y;Y,Z) = beta(Y,Z,Y)
@ B-freq = 0.032941  C-freq = 0.065882     beta(Z;Y,Z) = beta(Z,Z,Y)
@ B-freq = 0.049411  C-freq = 0.065882     beta(X;Y,Z) = beta(X,Z,Y)
@ B-freq = 0.049411  C-freq = 0.065882     beta(Y;Y,Z) = beta(Y,Z,Y)
@ B-freq = 0.049411  C-freq = 0.065882     beta(Z;Y,Z) = beta(Z,Z,Y)
@ B-freq = 0.065882  C-freq = 0.065882     beta(X;Y,Z) = beta(X,Z,Y)
@ B-freq = 0.065882  C-freq = 0.065882     beta(Y;Y,Z) = beta(Y,Z,Y)
@ B-freq = 0.065882  C-freq = 0.065882     beta(Z;Y,Z) = beta(Z,Z,Y)
@ B-freq = 0.000000  C-freq = 0.065882     beta(X;Z,Z) = beta(X,Z,Z)
@ B-freq = 0.000000  C-freq = 0.065882     beta(Y;Z,Z) = beta(Y,Z,Z)
@ B-freq = 0.000000  C-freq = 0.065882     beta(Z;Z,Z) = beta(Z,Z,Z)
@ B-freq = 0.016470  C-freq = 0.065882     beta(X;Z,Z) = beta(X,Z,Z)
@ B-freq = 0.016470  C-freq = 0.065882     beta(Y;Z,Z) = beta(Y,Z,Z)
@ B-freq = 0.016470  C-freq = 0.065882     beta(Z;Z,Z) = beta(Z,Z,Z)
@ B-freq = 0.032941  C-freq = 0.065882     beta(X;Z,Z) = beta(X,Z,Z)
@ B-freq = 0.032941  C-freq = 0.065882     beta(Y;Z,Z) = beta(Y,Z,Z)
@ B-freq = 0.032941  C-freq = 0.065882     beta(Z;Z,Z) = beta(Z,Z,Z)
@ B-freq = 0.049411  C-freq = 0.065882     beta(X;Z,Z) = beta(X,Z,Z)
@ B-freq = 0.049411  C-freq = 0.065882     beta(Y;Z,Z) = beta(Y,Z,Z)
@ B-freq = 0.049411  C-freq = 0.065882     beta(Z;Z,Z) = beta(Z,Z,Z)
@ B-freq = 0.065882  C-freq = 0.065882     beta(X;Z,Z) =     -0.00234557
@ B-freq = 0.065882  C-freq = 0.065882     beta(Y;Z,Z) =      0.00605268
@ B-freq = 0.065882  C-freq = 0.065882     beta(Z;Z,Z) =    -30.99190320

  Total CPU  time used in RESPONSE:  15.85 seconds
  Total wall time used in RESPONSE:  15.88 seconds


                   .-------------------------------------------.
                   | End of Dynamic Property Section (RESPONS) |
                   `-------------------------------------------'

  Total CPU  time used in DALTON:  16.57 seconds
  Total wall time used in DALTON:  16.62 seconds

 
     Date and time (Linux)  : Fri Sep 29 09:11:36 2023
     Host name              : sn-mem                                  
