

     ************************************************************************
     *************** Dalton - An Electronic Structure Program ***************
     ************************************************************************

    This is output from DALTON release Dalton2020.0 (2020)
         ( Web site: http://daltonprogram.org )

   ----------------------------------------------------------------------------

    NOTE:
     
    Dalton is an experimental code for the evaluation of molecular
    properties using (MC)SCF, DFT, CI, and CC wave functions.
    The authors accept no responsibility for the performance of
    the code or for the correctness of the results.
     
    The code (in whole or part) is provided under a licence and
    is not to be reproduced for further distribution without
    the written permission of the authors or their representatives.
     
    See the home page "http://daltonprogram.org" for further information.
     
    If results obtained with this code are published,
    the appropriate citations would be both of:
     
       K. Aidas, C. Angeli, K. L. Bak, V. Bakken, R. Bast,
       L. Boman, O. Christiansen, R. Cimiraglia, S. Coriani,
       P. Dahle, E. K. Dalskov, U. Ekstroem,
       T. Enevoldsen, J. J. Eriksen, P. Ettenhuber, B. Fernandez,
       L. Ferrighi, H. Fliegl, L. Frediani, K. Hald, A. Halkier,
       C. Haettig, H. Heiberg, T. Helgaker, A. C. Hennum,
       H. Hettema, E. Hjertenaes, S. Hoest, I.-M. Hoeyvik,
       M. F. Iozzi, B. Jansik, H. J. Aa. Jensen, D. Jonsson,
       P. Joergensen, J. Kauczor, S. Kirpekar,
       T. Kjaergaard, W. Klopper, S. Knecht, R. Kobayashi, H. Koch,
       J. Kongsted, A. Krapp, K. Kristensen, A. Ligabue,
       O. B. Lutnaes, J. I. Melo, K. V. Mikkelsen, R. H. Myhre,
       C. Neiss, C. B. Nielsen, P. Norman, J. Olsen,
       J. M. H. Olsen, A. Osted, M. J. Packer, F. Pawlowski,
       T. B. Pedersen, P. F. Provasi, S. Reine, Z. Rinkevicius,
       T. A. Ruden, K. Ruud, V. Rybkin, P. Salek, C. C. M. Samson,
       A. Sanchez de Meras, T. Saue, S. P. A. Sauer,
       B. Schimmelpfennig, K. Sneskov, A. H. Steindal,
       K. O. Sylvester-Hvid, P. R. Taylor, A. M. Teale,
       E. I. Tellgren, D. P. Tew, A. J. Thorvaldsen, L. Thoegersen,
       O. Vahtras, M. A. Watson, D. J. D. Wilson, M. Ziolkowski
       and H. Agren,
       "The Dalton quantum chemistry program system",
       WIREs Comput. Mol. Sci. 2014, 4:269–284 (doi: 10.1002/wcms.1172)
     
    and
     
       Dalton, a molecular electronic structure program,
       Release Dalton2020.0 (2020), see http://daltonprogram.org
   ----------------------------------------------------------------------------

    Authors in alphabetical order (Major contribution(s) in parenthesis):

  Kestutis Aidas,           Vilnius University,           Lithuania   (QM/MM)
  Celestino Angeli,         University of Ferrara,        Italy       (NEVPT2)
  Keld L. Bak,              UNI-C,                        Denmark     (AOSOPPA, non-adiabatic coupling, magnetic properties)
  Vebjoern Bakken,          University of Oslo,           Norway      (DALTON; geometry optimizer, symmetry detection)
  Radovan Bast,             UiT The Arctic U. of Norway,  Norway      (DALTON installation and execution frameworks)
  Pablo Baudin,             University of Valencia,       Spain       (Cholesky excitation energies)
  Linus Boman,              NTNU,                         Norway      (Cholesky decomposition and subsystems)
  Bruno N. Cabral Tenorio,  Technical Univ. of Denmark,   Denmark     (Lanczos-based CC methods)
  Ove Christiansen,         Aarhus University,            Denmark     (CC module)
  Renzo Cimiraglia,         University of Ferrara,        Italy       (NEVPT2)
  Sonia Coriani,            Technical Univ. of Denmark,   Denmark     (CC and RESPONS modules)
  Janusz Cukras,            University of Warsaw,         Poland      (MChD in RESPONS)
  Paal Dahle,               University of Oslo,           Norway      (Parallelization)
  Erik K. Dalskov,          UNI-C,                        Denmark     (SOPPA)
  Thomas Enevoldsen,        Univ. of Southern Denmark,    Denmark     (SOPPA)
  Janus J. Eriksen,         Aarhus University,            Denmark     (Polarizable embedding, TDA)
  Rasmus Faber,             Technical Univ. of Denmark,   Denmark     (Vib.avg. NMR w. SOPPA, parallel AO-SOPPA, CVS-CC and EOMCC)
  Tobias Fahleson,          KTH Stockholm,                Sweden      (Damped cubic response)
  Berta Fernandez,          U. of Santiago de Compostela, Spain       (Doublet spin, ESR in RESPONS)
  Lara Ferrighi,            Aarhus University,            Denmark     (PCM Cubic response)
  Heike Fliegl,             University of Oslo,           Norway      (CCSD(R12))
  Luca Frediani,            UiT The Arctic U. of Norway,  Norway      (PCM)
  Emmanuel Fromager,        Univ. Strasbourg,             France      (MC-srDFT)
  Bin Gao,                  UiT The Arctic U. of Norway,  Norway      (Gen1Int library)
  Andre S. P. Gomes,        CNRS/Universite de Lille,     France      (Frozen density embedding)
  Christof Haettig,         Ruhr-University Bochum,       Germany     (CC module)
  Kasper Hald,              Aarhus University,            Denmark     (CC module)
  Asger Halkier,            Aarhus University,            Denmark     (CC module)
  Frederik Beyer Hansen,    University of Copenhagen,     Denmark     (Parallel AO-SOPPA)
  Erik D. Hedegaard,        Univ. of Southern Denmark,    Denmark     (Polarizable embedding, QM/MM, and MC-srDFT)
  Hanne Heiberg,            University of Oslo,           Norway      (Geometry analysis, selected one-electron integrals)
  Trygve Helgaker,          University of Oslo,           Norway      (DALTON; ABACUS, ERI, DFT modules, London, and much more)
  Alf Christian Hennum,     University of Oslo,           Norway      (Parity violation)
  Hinne Hettema,            University of Auckland,       New Zealand (Quadratic response in RESPONS; SIRIUS supersymmetry)
  Eirik Hjertenaes,         NTNU,                         Norway      (Cholesky decomposition)
  Pi A. B. Haase,           University of Copenhagen,     Denmark     (Triplet AO-SOPPA)
  Maria Francesca Iozzi,    University of Oslo,           Norway      (RPA)
  Christoph Jacob           TU Braunschweig               Germany     (Frozen density embedding)
  Brano Jansik              Technical Univ. of Ostrava    Czech Rep.  (DFT cubic response)
  Hans Joergen Aa. Jensen,  Univ. of Southern Denmark,    Denmark     (DALTON; SIRIUS, RESPONS, ABACUS, MC-srDFT, and much more)
  Dan Jonsson,              UiT The Arctic U. of Norway,  Norway      (Cubic response in RESPONS module)
  Poul Joergensen,          Aarhus University,            Denmark     (RESPONS, ABACUS, and CC modules)
  Maciej Kaminski,          University of Warsaw,         Poland      (CPPh in RESPONS)
  Joanna Kauczor,           Linkoeping University,        Sweden      (Complex polarization propagator (CPP) module)
  Sheela Kirpekar,          Univ. of Southern Denmark,    Denmark     (Mass-velocity & Darwin integrals)
  Erik Kjellgren,           Univ. of Southern Denmark,    Denmark     (MC-srDFT)
  Wim Klopper,              KIT Karlsruhe,                Germany     (R12 code in CC, SIRIUS, and ABACUS modules)
  Stefan Knecht,            ETH Zurich,                   Switzerland (Parallel CI and MCSCF, MC-srDFT)
  Rika Kobayashi,           Australian National Univ.,    Australia   (DIIS in CC, London in MCSCF)
  Henrik Koch,              NTNU,                         Norway      (CC module, Cholesky decomposition)
  Jacob Kongsted,           Univ. of Southern Denmark,    Denmark     (Polarizable embedding, polarizable density embedding, QM/MM)
  Andrea Ligabue,           University of Modena,         Italy       (CTOCD, AOSOPPA)
  Nanna H. List             Univ. of Southern Denmark,    Denmark     (Polarizable embedding)
  Ola B. Lutnaes,           University of Oslo,           Norway      (DFT Hessian)
  Juan I. Melo,             University of Buenos Aires,   Argentina   (LRESC, Relativistic Effects on NMR Shieldings)
  Kurt V. Mikkelsen,        University of Copenhagen,     Denmark     (MC-SCRF and QM/MM)
  Rolf H. Myhre,            NTNU,                         Norway      (Subsystems and CC3)
  Christian Neiss,          Univ. Erlangen-Nuernberg,     Germany     (CCSD(R12))
  Christian B. Nielsen,     University of Copenhagen,     Denmark     (QM/MM)
  Patrick Norman,           KTH Stockholm,                Sweden      (Cubic response and complex frequency response in RESPONS)
  Jeppe Olsen,              Aarhus University,            Denmark     (SIRIUS CI/density modules)
  Jogvan Magnus H. Olsen,   Aarhus University,            Denmark     (Polarizable embedding and polarizable density embedding)
  Anders Osted,             Copenhagen University,        Denmark     (QM/MM)
  Martin J. Packer,         University of Sheffield,      UK          (SOPPA)
  Filip Pawlowski,          Kazimierz Wielki University,  Poland      (CC3)
  Morten N. Pedersen,       Univ. of Southern Denmark,    Denmark     (Polarizable embedding)
  Thomas B. Pedersen,       University of Oslo,           Norway      (Cholesky decomposition)
  Patricio F. Provasi,      University of Northeastern,   Argentina   (Analysis of coupling constants in localized orbitals)
  Peter Reinholdt,          Univ. of Southern Denmark,    Denmark     (Polarizable embedding and polarizable density embedding)
  Zilvinas Rinkevicius,     KTH Stockholm,                Sweden      (open-shell DFT, ESR)
  Elias Rudberg,            KTH Stockholm,                Sweden      (DFT grid and basis info)
  Torgeir A. Ruden,         University of Oslo,           Norway      (Numerical derivatives in ABACUS)
  Kenneth Ruud,             UiT The Arctic U. of Norway,  Norway      (DALTON; ABACUS magnetic properties and much more)
  Pawel Salek,              KTH Stockholm,                Sweden      (DALTON; DFT code)
  Claire C. M. Samson       University of Karlsruhe       Germany     (Boys localization, r12 integrals in ERI)
  Alfredo Sanchez de Meras, University of Valencia,       Spain       (CC module, Cholesky decomposition)
  Trond Saue,               Paul Sabatier University,     France      (direct Fock matrix construction)
  Stephan P. A. Sauer,      University of Copenhagen,     Denmark     (SOPPA(CCSD), SOPPA prop., AOSOPPA, vibrational g-factors)
  Bernd Schimmelpfennig,    Forschungszentrum Karlsruhe,  Germany     (AMFI module)
  Anna K. Schnack-Petersen, University of Copenhagen,     Denmark     (RPA(D) and HRPA(D) properties in AOSOPPA)
  Kristian Sneskov,         Aarhus University,            Denmark     (Polarizable embedding, QM/MM)
  Arnfinn H. Steindal,      UiT The Arctic U. of Norway,  Norway      (parallel QM/MM, polarizable embedding)
  Casper Steinmann,         Aalborg University,           Denmark     (QFIT, polarizable embedding)
  K. O. Sylvester-Hvid,     University of Copenhagen,     Denmark     (MC-SCRF)
  Peter R. Taylor,          VLSCI/Univ. of Melbourne,     Australia   (Symmetry handling ABACUS, integral transformation)
  Andrew M. Teale,          University of Nottingham,     England     (DFT-AC, DFT-D)
  David P. Tew,             University of Bristol,        England     (CCSD(R12))
  Julien Toulouse,          Sorbonne Univ.,               France      (MC-srDFT)
  Olav Vahtras,             KTH Stockholm,                Sweden      (Triplet response, spin-orbit, ESR, TDDFT, open-shell DFT)
  Lucas Visscher,           Vrije Universiteit Amsterdam, Netherlands (Frozen density embedding)
  David J. Wilson,          La Trobe University,          Australia   (DFT Hessian and DFT magnetizabilities)
  Hans Agren,               KTH Stockholm,                Sweden      (SIRIUS module, RESPONS, MC-SCRF solvation)
 --------------------------------------------------------------------------------

     Date and time (Linux)  : Fri Sep 29 06:29:01 2023
     Host name              : sn-mem                                  

 * Work memory size             :    64000000 =  488.28 megabytes.

 * Directories for basis set searches:
   1) /gpfs/projects/rjh/adrian/august_no_symmetry/dalton/hf/PH3/dipole
   2) /gpfs/projects/rjh/adrian/dalton/build/basis


Compilation information
-----------------------

 Who compiled             | ahurtado
 Host                     | sn-mem
 System                   | Linux-3.10.0-1160.24.1.el7.x86_64
 CMake generator          | Unix Makefiles
 Processor                | x86_64
 64-bit integers          | OFF
 MPI                      | ON
 Fortran compiler         | /gpfs/software/intel/oneAPI/2021_4/mpi/2021.4.0/bi
                          | n/mpif90
 Fortran compiler version | GNU Fortran (GCC) 11.2.0
 C compiler               | /gpfs/software/intel/oneAPI/2021_4/mpi/2021.4.0/bi
                          | n/mpicc
 C compiler version       | gcc (GCC) 11.2.0
 C++ compiler             | /gpfs/software/intel/oneAPI/2021_4/mpi/2021.4.0/bi
                          | n/mpicxx
 C++ compiler version     | unknown
 BLAS                     | /gpfs/software/intel/oneAPI/2021_4/mkl/2021.4.0/li
                          | b/intel64/libmkl_gf_lp64.so;/gpfs/software/intel/o
                          | neAPI/2021_4/mkl/2021.4.0/lib/intel64/libmkl_seque
                          | ntial.so;/gpfs/software/intel/oneAPI/2021_4/mkl/20
                          | 21.4.0/lib/intel64/libmkl_core.so;/usr/lib64/libpt
                          | hread.so;/usr/lib64/libm.so
 LAPACK                   | /gpfs/software/intel/oneAPI/2021_4/mkl/2021.4.0/li
                          | b/intel64/libmkl_lapack95_lp64.a;/gpfs/software/in
                          | tel/oneAPI/2021_4/mkl/2021.4.0/lib/intel64/libmkl_
                          | gf_lp64.so
 Static linking           | OFF
 Last Git revision        | 66052b3af5ea7225e31178bf9a8b031913c72190
 Git branch               | (HEAD detached at Dalton2020.0)
 Configuration time       | 2023-01-11 13:33:37.731835

 * MPI parallel run using 5 processes.


   Content of the .dal input file
 ----------------------------------

**DALTON INPUT
.RUN RESPONSE
.DIRECT
**WAVE FUNCTIONS
.HF
**PROPERTIES
**RESPONSE
*QUADRA
.DIPLEN
.FREQUENCIES
5
0.0 0.0164705 0.032941 0.0494115 0.065882
**END OF DALTON INPUT


   Content of the .mol file
 ----------------------------

BASIS
aug-cc-pVQZ
blah
blah
Atomtype=2 Angstrom Charge=0 Nosymmmetry
Charge=15 Atoms=1
P_a 0.000000000000 0.000000000000 0.000000000000
Charge=1 Atoms=3
H_a 0.000000000000 -1.193199998467 -0.771699999462
H_b 1.033300002415 0.596600001880 -0.771699999462
H_c -1.033300002415 0.596600001880 -0.771699999462


       *******************************************************************
       *********** Output from DALTON general input processing ***********
       *******************************************************************

 --------------------------------------------------------------------------------
   Overall default print level:    0
   Print level for DALTON.STAT:    1

    Parallel calculation using MPI
    AO-direct calculation (in sections where implemented)
    HERMIT 1- and 2-electron integral sections will be executed
    "Old" integral transformation used (limited to max 255 basis functions)
    Wave function sections will be executed (SIRIUS module)
    Dynamic molecular response properties section will be executed (RESPONSE module)
 --------------------------------------------------------------------------------


   ****************************************************************************
   *************** Output of molecule and basis set information ***************
   ****************************************************************************


    The two title cards from your ".mol" input:
    ------------------------------------------------------------------------
 1: blah                                                                    
 2: blah                                                                    
    ------------------------------------------------------------------------

  Coordinates are entered in Angstrom and converted to atomic units.
          - Conversion factor : 1 bohr = 0.52917721 A

  Atomic type no.    1
  --------------------
  Nuclear charge:  15.00000
  Number of symmetry independent centers:    1
  Number of basis sets to read;    2
  Basis set file used for this atomic type with Z =  15 :
     "/gpfs/projects/rjh/adrian/dalton/build/basis/aug-cc-pVQZ"

  Atomic type no.    2
  --------------------
  Nuclear charge:   1.00000
  Number of symmetry independent centers:    3
  Number of basis sets to read;    2
  Basis set file used for this atomic type with Z =   1 :
     "/gpfs/projects/rjh/adrian/dalton/build/basis/aug-cc-pVQZ"


                         SYMGRP: Point group information
                         -------------------------------

@    Point group: C1 


                                 Isotopic Masses
                                 ---------------

                           P_a        30.973763
                           H_a         1.007825
                           H_b         1.007825
                           H_c         1.007825

                       Total mass:    33.997238 amu
                       Natural abundance:  99.955 %

 Center-of-mass coordinates (a.u.):    0.000000    0.000000   -0.129691
 Center-of-mass coordinates (Angs):    0.000000    0.000000   -0.068630


  Atoms and basis sets
  --------------------

  Number of atom types :    2
  Total number of atoms:    4

  Basis set used is "aug-cc-pVQZ" from the basis set library.

  label    atoms   charge   prim   cont     basis
  ----------------------------------------------------------------------
  P_          1   15.0000   112    84      [17s12p4d3f2g|7s6p4d3f2g]                          
  H_          3    1.0000    48    46      [7s4p3d2f|5s4p3d2f]                                
  ----------------------------------------------------------------------
  total:      4   18.0000   256   222
  ----------------------------------------------------------------------
  Spherical harmonic basis used.

  Threshold for neglecting AO integrals:  1.00D-12


  Cartesian Coordinates (a.u.)
  ----------------------------

  Total number of coordinates:   12
  P_a     :     1  x   0.0000000000    2  y   0.0000000000    3  z   0.0000000000
  H_a     :     4  x   0.0000000000    5  y  -2.2548212094    6  z  -1.4583016496
  H_b     :     7  x   1.9526540095    8  y   1.1274106097    9  z  -1.4583016496
  H_c     :    10  x  -1.9526540095   11  y   1.1274106097   12  z  -1.4583016496


   Interatomic separations (in Angstrom):
   --------------------------------------

            P_a         H_a         H_b         H_c   
            ------      ------      ------      ------
 P_a   :    0.000000
 H_a   :    1.421002    0.000000
 H_b   :    1.420972    2.066662    0.000000
 H_c   :    1.420972    2.066662    2.066600    0.000000


  Max    interatomic separation is    2.0667 Angstrom (    3.9054 Bohr)
  between atoms    3 and    2, "H_b   " and "H_a   ".

  Min HX interatomic separation is    1.4210 Angstrom (    2.6852 Bohr)


  Bond distances (Angstrom):
  --------------------------

                  atom 1     atom 2       distance
                  ------     ------       --------
  bond distance:  H_a        P_a          1.421002
  bond distance:  H_b        P_a          1.420972
  bond distance:  H_c        P_a          1.420972


  Bond angles (degrees):
  ----------------------

                  atom 1     atom 2     atom 3         angle
                  ------     ------     ------         -----
  bond angle:     H_a        P_a        H_b           93.303
  bond angle:     H_a        P_a        H_c           93.303
  bond angle:     H_b        P_a        H_c           93.301




 Principal moments of inertia (u*A**2) and principal axes
 --------------------------------------------------------

   IA       3.792542          0.000000    1.000000   -0.000000
   IB       3.792715          1.000000    0.000000    0.000000
   IC       4.304428          0.000000    0.000000    1.000000


 Rotational constants
 --------------------

               A                   B                   C

         133255.9944         133249.9191         117409.1033 MHz
            4.444942            4.444739            3.916346 cm-1


@  Nuclear repulsion energy :   17.526280706353 Hartree


                     .---------------------------------------.
                     | Starting in Integral Section (HERMIT) |
                     `---------------------------------------'



 ***************************************************************************************
 ****************** Output from **INTEGRALS input processing (HERMIT) ******************
 ***************************************************************************************


 - Using defaults, no **INTEGRALS input found

 Default print level:        1

 Calculation of one-electron Hamiltonian integrals.

 Center of mass  (bohr):      0.000000000000      0.000000000297     -0.129691081968
 Operator center (bohr):      0.000000000000      0.000000000000      0.000000000000
 Gauge origin    (bohr):      0.000000000000      0.000000000000      0.000000000000
 Dipole origin   (bohr):      0.000000000000      0.000000000000      0.000000000000


     ************************************************************************
     ************************** Output from HERINT **************************
     ************************************************************************



                      Nuclear contribution to dipole moments
                      --------------------------------------

                 au               Debye          C m (/(10**-30)

      x      0.00000000         0.00000000         0.00000000
      y      0.00000001         0.00000003         0.00000008
      z     -4.37490495       -11.11989850       -37.09198882


  Time used in GABGEN     is       0.49 seconds
  Total CPU  time used in HERMIT:   0.76 seconds
  Total wall time used in HERMIT:   0.76 seconds


                        .----------------------------------.
                        | End of Integral Section (HERMIT) |
                        `----------------------------------'



                   .--------------------------------------------.
                   | Starting in Wave Function Section (SIRIUS) |
                   `--------------------------------------------'


 *** Output from Huckel module :

     Using EWMO model:          T
     Using EHT  model:          F
     Number of Huckel orbitals each symmetry:   17

 EWMO - Energy Weighted Maximum Overlap - is a Huckel type method,
        which normally is better than Extended Huckel Theory.
 Reference: Linderberg and Ohrn, Propagators in Quantum Chemistry (Wiley, 1973)

 Huckel EWMO eigenvalues for symmetry :  1
          -79.989138      -7.539621      -5.419453      -5.419453      -5.419331
           -1.162139      -0.617917      -0.617908      -0.435032      -0.171097
           -0.171096      -0.123482      -0.055556      -0.055556      -0.055288
           -0.028356      -0.028355

 **********************************************************************
 *SIRIUS* a direct, restricted step, second order MCSCF program       *
 **********************************************************************

 
     Date and time (Linux)  : Fri Sep 29 06:29:03 2023
     Host name              : sn-mem                                  

 Title lines from ".mol" input file:
     blah                                                                    
     blah                                                                    

 Print level on unit LUPRI =   2 is   0
 Print level on unit LUW4  =   2 is   5

@    Restricted, closed shell Hartree-Fock calculation.

@    Time-dependent Hartree-Fock calculation (random phase approximation).
 Fock matrices are calculated directly and in parallel without use of integrals on disk.

 Initial molecular orbitals are obtained according to
 ".MOSTART EWMO  " input option

     Wave function specification
     ============================
@    Wave function type        --- HF ---
@    Number of closed shell electrons          18
@    Number of electrons in active shells       0
@    Total charge of the molecule               0

@    Spin multiplicity and 2 M_S                1         0
@    Total number of symmetries                 1 (point group: C1 )
@    Reference state symmetry                   1 (irrep name : A  )

     Orbital specifications
     ======================
@    Abelian symmetry species          All |    1
@                                          |  A  
                                       --- |  ---
@    Occupied SCF orbitals               9 |    9
@    Secondary orbitals                213 |  213
@    Total number of orbitals          222 |  222
@    Number of basis functions         222 |  222

     Optimization information
     ========================
@    Number of configurations                 1
@    Number of orbital rotations           1917
     ------------------------------------------
@    Total number of variables             1918

     Maximum number of Fock   iterations      0
     Maximum number of DIIS   iterations     60
     Maximum number of QC-SCF iterations     60
     Threshold for SCF convergence     1.00D-05


 ***********************************************
 ***** DIIS acceleration of SCF iterations *****
 ***********************************************

 C1-DIIS algorithm; max error vectors =    8

 Iter      Total energy        Error norm    Delta(E)  DIIS dim.
 -----------------------------------------------------------------------------
   1  Screening settings (-IFTHRS, JTDIIS, DIFDEN, times)   -8    1    T  9.04D+00  9.07D+00
@  1    -342.357033334        1.21876D+00   -3.42D+02    1
      Virial theorem: -V/T =      2.002712
@    MULPOP   P_a    -0.08; H_a     0.03; H_b     0.03; H_c     0.03; 
   1  Level shift: doubly occupied orbital energies shifted by -2.00D-01
 -----------------------------------------------------------------------------
   2  Screening settings (-IFTHRS, JTDIIS, DIFDEN, times)   -8    2    T  8.76D+00  8.83D+00
@  2    -342.484151587        2.74019D-01   -1.27D-01    2
      Virial theorem: -V/T =      1.999135
@    MULPOP   P_a     0.04; H_a    -0.01; H_b    -0.01; H_c    -0.01; 
   2  Level shift: doubly occupied orbital energies shifted by -5.00D-02
 -----------------------------------------------------------------------------
   3  Screening settings (-IFTHRS, JTDIIS, DIFDEN, times)  -12    3    F  8.89D+00  8.91D+00
@  3    -342.491144684        8.00760D-02   -6.99D-03    3
      Virial theorem: -V/T =      2.000167
@    MULPOP   P_a     0.14; H_a    -0.05; H_b    -0.05; H_c    -0.05; 
   3  Level shift: doubly occupied orbital energies shifted by -2.50D-02
 -----------------------------------------------------------------------------
   4  Screening settings (-IFTHRS, JTDIIS, DIFDEN, times)  -12    4    T  8.99D+00  9.04D+00
@  4    -342.492154609        2.02290D-02   -1.01D-03    4
      Virial theorem: -V/T =      2.000083
@    MULPOP   P_a     0.18; H_a    -0.06; H_b    -0.06; H_c    -0.06; 
   4  Level shift: doubly occupied orbital energies shifted by -1.25D-02
 -----------------------------------------------------------------------------
   5  Screening settings (-IFTHRS, JTDIIS, DIFDEN, times)  -12    5    T  9.19D+00  9.20D+00
@  5    -342.492258357        4.94698D-03   -1.04D-04    5
      Virial theorem: -V/T =      2.000126
@    MULPOP   P_a     0.18; H_a    -0.06; H_b    -0.06; H_c    -0.06; 
 -----------------------------------------------------------------------------
   6  Screening settings (-IFTHRS, JTDIIS, DIFDEN, times)  -12    6    T  8.92D+00  8.93D+00
@  6    -342.492266082        7.18523D-04   -7.72D-06    6
      Virial theorem: -V/T =      2.000125
@    MULPOP   P_a     0.18; H_a    -0.06; H_b    -0.06; H_c    -0.06; 
 -----------------------------------------------------------------------------
   7  Screening settings (-IFTHRS, JTDIIS, DIFDEN, times)  -12    7    T  9.03D+00  9.08D+00
@  7    -342.492266236        1.54417D-04   -1.54D-07    7
      Virial theorem: -V/T =      2.000127
@    MULPOP   P_a     0.18; H_a    -0.06; H_b    -0.06; H_c    -0.06; 
 -----------------------------------------------------------------------------
   8  Screening settings (-IFTHRS, JTDIIS, DIFDEN, times)  -12    8    T  8.96D+00  8.97D+00
@  8    -342.492266241        3.01584D-05   -5.74D-09    8
      Virial theorem: -V/T =      2.000127
@    MULPOP   P_a     0.18; H_a    -0.06; H_b    -0.06; H_c    -0.06; 
 -----------------------------------------------------------------------------
   9  Screening settings (-IFTHRS, JTDIIS, DIFDEN, times)  -12    9    T  9.04D+00  9.05D+00
@  9    -342.492266242        3.96187D-06   -1.92D-10    8

@ *** DIIS converged in   9 iterations !
@     Converged SCF energy, gradient:   -342.492266241576    3.96D-06
    - total time used in SIRFCK :              0.00 seconds


 *** SCF orbital energy analysis ***

 Only the 20 lowest virtual orbital energies printed in each symmetry.

 Number of electrons :   18
 Orbital occupations :    9

 Sym       Hartree-Fock orbital energies

1 A     -79.94488946    -7.48800667    -5.38171883    -5.38171872    -5.38075121
         -0.85391363    -0.52035790    -0.52035690    -0.38876545     0.02568074
          0.04810030     0.04810057     0.06644711     0.07794283     0.07794326
          0.11732053     0.14987373     0.14987478     0.15339796     0.15339841
          0.15381303     0.21041035     0.21041147     0.23758736     0.23980908
          0.23980958     0.25410445     0.26017420     0.26017629

    E(LUMO) :     0.02568074 au (symmetry 1)
  - E(HOMO) :    -0.38876545 au (symmetry 1)
  ------------------------------------------
    gap     :     0.41444619 au

 --- Writing SIRIFC interface file

 CPU and wall time for SCF :      81.681      81.946


                       .-----------------------------------.
                       | --- Final results from SIRIUS --- |
                       `-----------------------------------'


@    Spin multiplicity:           1
@    Spatial symmetry:            1 ( irrep  A   in C1  )
@    Total charge of molecule:    0

@    Final HF energy:            -342.492266241576                 
@    Nuclear repulsion:            17.526280706353
@    Electronic energy:          -360.018546947929

@    Final gradient norm:           0.000003961869

 
     Date and time (Linux)  : Fri Sep 29 06:30:25 2023
     Host name              : sn-mem                                  

File label for MO orbitals:  29Sep23   FOCKDIIS

 (Only coefficients > 0.0100 are printed.)

 Molecular orbitals for symmetry species 1  (A  )
 ------------------------------------------------

    Orbital         1        2        3        4        5        6        7
   1 P_a :1s    -0.9999  -0.0002  -0.0000   0.0000  -0.0006   0.0000  -0.0000
   2 P_a :1s     0.0009   0.9994  -0.0000   0.0000  -0.0085  -0.0107  -0.0000
   3 P_a :1s     0.0021   0.0010  -0.0000   0.0000  -0.0041   0.7927   0.0000
   4 P_a :1s     0.0004   0.0072   0.0000   0.0000   0.0047  -0.0266  -0.0000
   5 P_a :1s    -0.0020  -0.0154   0.0000  -0.0000   0.0011  -0.0099   0.0000
   6 P_a :1s    -0.0021  -0.0021  -0.0000  -0.0000  -0.0097   0.0455   0.0000
   8 P_a :2px   -0.0000   0.0000  -1.0017   0.0000  -0.0000   0.0000  -0.0000
   9 P_a :2py   -0.0000  -0.0000   0.0000   1.0017  -0.0000  -0.0000   0.0223
  10 P_a :2pz    0.0008  -0.0117  -0.0000  -0.0000  -0.9915   0.0155  -0.0000
  12 P_a :2py   -0.0000  -0.0000   0.0000   0.0080  -0.0000   0.0000  -0.6213
  13 P_a :2pz    0.0029  -0.0283  -0.0000   0.0000   0.0354  -0.1244   0.0000
  15 P_a :2py    0.0000   0.0000  -0.0000  -0.0011   0.0000   0.0000  -0.0193
  16 P_a :2pz   -0.0014   0.0086  -0.0000  -0.0000  -0.0120  -0.0023   0.0000
  17 P_a :2px   -0.0000  -0.0000   0.0120  -0.0000  -0.0000  -0.0000   0.0000
  18 P_a :2py    0.0000   0.0000  -0.0000  -0.0120   0.0000  -0.0000   0.1225
  19 P_a :2pz   -0.0007   0.0217   0.0000  -0.0000  -0.0135  -0.0150  -0.0000
  21 P_a :2py    0.0000   0.0000   0.0000  -0.0065   0.0000  -0.0000   0.1315
  27 P_a :3d1-  -0.0000   0.0000   0.0000  -0.0012   0.0000  -0.0000   0.0303
  30 P_a :3d2+   0.0000  -0.0000  -0.0000  -0.0003   0.0000   0.0000  -0.0230
  32 P_a :3d1-  -0.0000  -0.0000   0.0000   0.0018  -0.0000  -0.0000   0.0360
  35 P_a :3d2+   0.0000   0.0000   0.0000   0.0003  -0.0000   0.0000  -0.0284
  53 P_a :4f3-  -0.0002  -0.0009  -0.0000   0.0000   0.0000   0.0139  -0.0000
  56 P_a :4f0   -0.0001  -0.0009  -0.0000   0.0000  -0.0004   0.0124  -0.0000
  85 H_a :1s     0.0001   0.0005  -0.0000  -0.0015   0.0013   0.3421   0.6699
  86 H_a :1s     0.0000   0.0001   0.0000  -0.0001  -0.0001  -0.0118  -0.0160
  87 H_a :1s     0.0005   0.0053   0.0000  -0.0065   0.0023  -0.0984  -0.0246
  88 H_a :1s     0.0003  -0.0004   0.0000  -0.0043   0.0025  -0.1179  -0.0116
  89 H_a :1s     0.0000  -0.0000   0.0000  -0.0004   0.0001  -0.0007   0.0117
  94 H_a :2py   -0.0000   0.0003   0.0000  -0.0005   0.0002   0.0067   0.0108
  97 H_a :2py    0.0001   0.0020   0.0000  -0.0018   0.0012   0.0019   0.0338
  98 H_a :2pz    0.0001   0.0014  -0.0000  -0.0010  -0.0004   0.0005   0.0260
 100 H_a :2py    0.0000  -0.0001   0.0000  -0.0004   0.0005  -0.0051   0.0222
 101 H_a :2pz    0.0000   0.0002   0.0000  -0.0001   0.0000  -0.0023   0.0131
 131 H_b :1s     0.0001   0.0005  -0.0013   0.0007   0.0013   0.3421  -0.3349
 132 H_b :1s     0.0000   0.0001  -0.0001   0.0001  -0.0001  -0.0118   0.0080
 133 H_b :1s     0.0005   0.0053  -0.0056   0.0032   0.0023  -0.0984   0.0123
 134 H_b :1s     0.0003  -0.0004  -0.0037   0.0021   0.0025  -0.1180   0.0058
 142 H_b :2px   -0.0001  -0.0017   0.0011  -0.0012  -0.0011  -0.0017   0.0177
 144 H_b :2pz    0.0001   0.0014  -0.0008   0.0005  -0.0004   0.0005  -0.0130
 177 H_c :1s     0.0001   0.0005   0.0013   0.0007   0.0013   0.3421  -0.3349
 178 H_c :1s     0.0000   0.0001   0.0001   0.0001  -0.0001  -0.0118   0.0080
 179 H_c :1s     0.0005   0.0053   0.0056   0.0032   0.0023  -0.0984   0.0123
 180 H_c :1s     0.0003  -0.0004   0.0037   0.0021   0.0025  -0.1180   0.0058
 188 H_c :2px    0.0001   0.0017   0.0011   0.0012   0.0011   0.0017  -0.0177
 190 H_c :2pz    0.0001   0.0014   0.0008   0.0005  -0.0004   0.0005  -0.0130

    Orbital         8        9       10       11       12       13       14
   2 P_a :1s     0.0000  -0.0064   0.0083  -0.0000  -0.0000  -0.0426  -0.0000
   3 P_a :1s     0.0000  -0.4268  -0.1141  -0.0000  -0.0000  -0.1940   0.0000
   4 P_a :1s     0.0000  -0.0128   0.1083   0.0000   0.0000  -0.2860   0.0000
   5 P_a :1s    -0.0000   0.0167  -0.0204  -0.0000  -0.0000   0.3033   0.0000
   6 P_a :1s     0.0000  -0.1656  -4.0725  -0.0001  -0.0000   7.0701  -0.0000
   7 P_a :1s     0.0000  -0.0405  -4.8712  -0.0000  -0.0000   1.1322  -0.0000
   8 P_a :2px   -0.0223   0.0000   0.0000  -0.0000  -0.0208  -0.0000  -0.0175
   9 P_a :2py   -0.0000   0.0000   0.0000   0.0208  -0.0000  -0.0000  -0.0000
  10 P_a :2pz   -0.0000  -0.0064   0.0290  -0.0000  -0.0000  -0.0145   0.0000
  11 P_a :2px    0.6213   0.0000   0.0000   0.0000   0.0138   0.0000  -0.1535
  12 P_a :2py    0.0000  -0.0000   0.0000  -0.0139   0.0000  -0.0000  -0.0000
  13 P_a :2pz   -0.0000  -0.8518   0.1778  -0.0000  -0.0000  -0.2029  -0.0000
  14 P_a :2px    0.0194  -0.0000   0.0000   0.0000   0.0054   0.0000   0.0143
  16 P_a :2pz    0.0000   0.0180  -0.0796   0.0000   0.0000   0.0778  -0.0000
  17 P_a :2px   -0.1225  -0.0000  -0.0000   0.0000   0.7641  -0.0000   0.2232
  18 P_a :2py   -0.0000   0.0000  -0.0000  -0.7641   0.0000   0.0001   0.0000
  19 P_a :2pz   -0.0000   0.0638   0.4212   0.0000   0.0000  -0.6668   0.0000
  20 P_a :2px   -0.1315  -0.0000   0.0000   0.0000   2.4792  -0.0000   0.1805
  21 P_a :2py   -0.0000  -0.0000  -0.0000  -2.4792   0.0000   0.0001   0.0000
  22 P_a :2pz   -0.0000   0.0468   1.8991   0.0000   0.0000  -1.4791   0.0000
  23 P_a :2px   -0.0037  -0.0000  -0.0000   0.0000   1.5895  -0.0000  -3.9914
  24 P_a :2py   -0.0000  -0.0000  -0.0000  -1.5896   0.0000  -0.0001  -0.0000
  25 P_a :2pz   -0.0000  -0.0066   0.6958  -0.0000   0.0000   1.6240   0.0000
  26 P_a :3d2-   0.0230   0.0000  -0.0000  -0.0000  -0.0029   0.0000   0.0046
  29 P_a :3d1+  -0.0303   0.0000  -0.0000   0.0000   0.0038   0.0000  -0.0086
  31 P_a :3d2-   0.0284   0.0000   0.0000   0.0000   0.0664   0.0000   0.0679
  32 P_a :3d1-  -0.0000   0.0000   0.0000   0.0856  -0.0000  -0.0000  -0.0000
  33 P_a :3d0    0.0000  -0.0006  -0.0042  -0.0000   0.0000  -0.0495  -0.0000
  34 P_a :3d1+  -0.0360   0.0000   0.0000  -0.0000  -0.0856  -0.0000  -0.0531
  35 P_a :3d2+  -0.0000  -0.0000  -0.0000  -0.0664   0.0000   0.0000   0.0000
  36 P_a :3d2-   0.0057   0.0000  -0.0000   0.0000   0.3632  -0.0000   0.4275
  37 P_a :3d1-  -0.0000  -0.0000   0.0000   0.4686  -0.0000  -0.0000  -0.0000
  38 P_a :3d0    0.0000  -0.0015  -0.0264  -0.0000   0.0000  -0.4039  -0.0000
  39 P_a :3d1+  -0.0056  -0.0000   0.0000  -0.0000  -0.4686  -0.0000  -0.1895
  40 P_a :3d2+  -0.0000  -0.0000   0.0000  -0.3632   0.0000  -0.0000   0.0000
  41 P_a :3d2-  -0.0016   0.0000  -0.0000   0.0000   0.4890   0.0000   0.1699
  42 P_a :3d1-   0.0000   0.0000   0.0000   0.6300  -0.0000   0.0000   0.0000
  43 P_a :3d0    0.0000   0.0023  -0.1345  -0.0000  -0.0000  -0.7043  -0.0000
  44 P_a :3d1+   0.0009   0.0000  -0.0000  -0.0000  -0.6300   0.0000   0.6067
  45 P_a :3d2+  -0.0000  -0.0000   0.0000  -0.4890   0.0000  -0.0000   0.0000
  53 P_a :4f3-  -0.0000   0.0050  -0.0536  -0.0000  -0.0000   0.1956   0.0000
  54 P_a :4f2-   0.0023  -0.0000   0.0000  -0.0000  -0.0927   0.0000  -0.1426
  55 P_a :4f1-   0.0000   0.0000  -0.0000  -0.0383   0.0000   0.0000   0.0000
  56 P_a :4f0   -0.0000   0.0074  -0.0411   0.0000  -0.0000   0.1875   0.0000
  57 P_a :4f1+  -0.0028   0.0000  -0.0000   0.0000   0.0383   0.0000   0.0159
  58 P_a :4f2+   0.0000   0.0000  -0.0000   0.0927  -0.0000   0.0000  -0.0000
  60 P_a :4f3-   0.0000  -0.0002  -0.0786   0.0000   0.0000   0.2025   0.0000
  61 P_a :4f2-   0.0019  -0.0000  -0.0000  -0.0000  -0.1205   0.0000  -0.0894
  62 P_a :4f1-  -0.0000   0.0000  -0.0000  -0.0502   0.0000  -0.0000  -0.0000
  63 P_a :4f0    0.0000   0.0012  -0.0668   0.0000  -0.0000   0.1782   0.0000
  64 P_a :4f1+  -0.0017   0.0000  -0.0000   0.0000   0.0502  -0.0000  -0.0744
  65 P_a :4f2+   0.0000   0.0000  -0.0000   0.1205  -0.0000   0.0000  -0.0000
  68 P_a :5g3-   0.0000  -0.0016   0.0047   0.0000   0.0000  -0.0148   0.0000
  76 P_a :5g4-  -0.0003  -0.0000   0.0000   0.0000   0.0071   0.0000   0.0206
  77 P_a :5g3-   0.0000  -0.0001   0.0222  -0.0000   0.0000  -0.0783  -0.0000
  78 P_a :5g2-  -0.0009   0.0000   0.0000  -0.0000   0.0180  -0.0000   0.0323
  80 P_a :5g0   -0.0000  -0.0001   0.0099  -0.0000   0.0000  -0.0393  -0.0000
  81 P_a :5g1+   0.0002   0.0000   0.0000   0.0000   0.0045   0.0000   0.0265
  82 P_a :5g2+  -0.0000  -0.0000   0.0000  -0.0180   0.0000  -0.0000   0.0000
  85 H_a :1s    -0.0000   0.2427  -0.0060   0.0559  -0.0000   0.0359  -0.0000
  86 H_a :1s     0.0000  -0.0056  -0.0034   0.0175  -0.0000   0.0151  -0.0000
  87 H_a :1s     0.0000  -0.0316   0.3029  -0.6210   0.0000  -0.8434   0.0000
  88 H_a :1s    -0.0000  -0.0035   1.9992  -3.8108   0.0000  -2.1890   0.0000
  89 H_a :1s    -0.0000   0.0044   1.4218  -5.4827   0.0000  -0.1217  -0.0001
  94 H_a :2py   -0.0000   0.0047  -0.0026   0.0042   0.0000  -0.0184   0.0000
  96 H_a :2px    0.0071   0.0000   0.0000  -0.0000   0.0111  -0.0000   0.0960
  97 H_a :2py    0.0000   0.0026   0.1367  -0.3075   0.0000  -0.2169   0.0000
  98 H_a :2pz    0.0000  -0.0095   0.0745  -0.1801   0.0000  -0.2426   0.0000
  99 H_a :2px   -0.0012   0.0000  -0.0000  -0.0000  -0.0112   0.0000   0.7142
 100 H_a :2py    0.0000   0.0020   0.4380  -0.9289   0.0000  -0.3378   0.0000
 101 H_a :2pz    0.0000   0.0017   0.1043  -0.6123   0.0000  -0.9098   0.0000
 107 H_a :3d2-   0.0019   0.0000   0.0000  -0.0000  -0.0003  -0.0000   0.0116
 108 H_a :3d1-  -0.0000  -0.0009   0.0071  -0.0209   0.0000  -0.0212   0.0000
 111 H_a :3d2+  -0.0000  -0.0006  -0.0074   0.0178  -0.0000   0.0088  -0.0000
 112 H_a :3d2-   0.0007   0.0000  -0.0000  -0.0000  -0.0025   0.0000   0.1493
 113 H_a :3d1-   0.0000  -0.0012  -0.0029  -0.0803   0.0000  -0.0860   0.0000
 114 H_a :3d0    0.0000   0.0000  -0.0144   0.0053  -0.0000  -0.0758  -0.0000
 115 H_a :3d1+  -0.0010   0.0000  -0.0000   0.0000   0.0092   0.0000   0.0238
 116 H_a :3d2+  -0.0000   0.0012  -0.0196   0.0626  -0.0000  -0.0346  -0.0000
 124 H_a :4f3-   0.0000   0.0001  -0.0008   0.0035  -0.0000  -0.0116  -0.0000
 125 H_a :4f2-   0.0001   0.0000  -0.0000  -0.0000   0.0010  -0.0000   0.0112
 126 H_a :4f1-   0.0000  -0.0000  -0.0050  -0.0028   0.0000  -0.0137  -0.0000
 130 H_a :4f3+  -0.0004  -0.0000  -0.0000   0.0000   0.0016  -0.0000  -0.0246
 131 H_b :1s     0.5801   0.2426  -0.0060  -0.0279   0.0484   0.0359   0.1152
 132 H_b :1s    -0.0138  -0.0056  -0.0034  -0.0087   0.0151   0.0151   0.0089
 133 H_b :1s    -0.0213  -0.0316   0.3030   0.3105  -0.5379  -0.8434  -0.4138
 134 H_b :1s    -0.0100  -0.0035   1.9992   1.9055  -3.3004  -2.1891  -0.5609
 135 H_b :1s     0.0101   0.0044   1.4218   2.7414  -4.7483  -0.1215   4.9213
 139 H_b :2px   -0.0071  -0.0041   0.0023   0.0015  -0.0034   0.0159   0.0028
 142 H_b :2px   -0.0236  -0.0022  -0.1184  -0.1283   0.2334   0.1878   0.1405
 143 H_b :2py   -0.0177  -0.0013  -0.0683  -0.0852   0.1283   0.1084   0.0257
 144 H_b :2pz    0.0225  -0.0095   0.0745   0.0901  -0.1560  -0.2426  -0.0886
 145 H_b :2px   -0.0170  -0.0017  -0.3793  -0.4071   0.6939   0.2926   0.6889
 146 H_b :2py   -0.0091  -0.0010  -0.2190  -0.2238   0.4071   0.1689  -0.0146
 147 H_b :2pz    0.0113   0.0017   0.1043   0.3062  -0.5303  -0.9098  -0.2653
 153 H_b :3d2-   0.0018   0.0006   0.0064   0.0075  -0.0134  -0.0076  -0.0026
 154 H_b :3d1-  -0.0017   0.0005  -0.0036  -0.0058   0.0087   0.0106   0.0023
 156 H_b :3d1+  -0.0024   0.0008  -0.0062  -0.0087   0.0158   0.0184   0.0087
 158 H_b :3d2-   0.0015  -0.0011   0.0170   0.0261  -0.0476   0.0300  -0.0076
 159 H_b :3d1-  -0.0008   0.0006   0.0014  -0.0270   0.0308   0.0430  -0.0077
 160 H_b :3d0   -0.0003   0.0000  -0.0144  -0.0027   0.0046  -0.0758   0.0402
 161 H_b :3d1+  -0.0024   0.0010   0.0025  -0.0308   0.0625   0.0745   0.0105
 162 H_b :3d2+   0.0005  -0.0006   0.0098   0.0175  -0.0261   0.0173  -0.0906
 170 H_b :4f3-   0.0006   0.0001  -0.0008  -0.0017   0.0030  -0.0116   0.0042
 174 H_b :4f1+   0.0000   0.0000   0.0043  -0.0016   0.0019   0.0119  -0.0115
 176 H_b :4f3+   0.0002  -0.0000   0.0000  -0.0014  -0.0008   0.0000   0.0123
 177 H_c :1s    -0.5801   0.2426  -0.0060  -0.0279  -0.0484   0.0359  -0.1152
 178 H_c :1s     0.0138  -0.0056  -0.0034  -0.0087  -0.0151   0.0151  -0.0089
 179 H_c :1s     0.0213  -0.0316   0.3030   0.3105   0.5379  -0.8434   0.4138
 180 H_c :1s     0.0100  -0.0035   1.9992   1.9055   3.3004  -2.1891   0.5609
 181 H_c :1s    -0.0101   0.0044   1.4218   2.7414   4.7483  -0.1215  -4.9213
 185 H_c :2px   -0.0071   0.0041  -0.0023  -0.0015  -0.0034  -0.0159   0.0028
 188 H_c :2px   -0.0236   0.0022   0.1184   0.1283   0.2334  -0.1878   0.1405
 189 H_c :2py    0.0177  -0.0013  -0.0683  -0.0852  -0.1283   0.1084  -0.0257
 190 H_c :2pz   -0.0225  -0.0095   0.0745   0.0901   0.1560  -0.2426   0.0886
 191 H_c :2px   -0.0170   0.0017   0.3793   0.4071   0.6939  -0.2926   0.6889
 192 H_c :2py    0.0091  -0.0010  -0.2190  -0.2238  -0.4071   0.1689   0.0146
 193 H_c :2pz   -0.0113   0.0017   0.1043   0.3062   0.5303  -0.9098   0.2653
 199 H_c :3d2-   0.0018  -0.0006  -0.0064  -0.0075  -0.0134   0.0076  -0.0026
 200 H_c :3d1-   0.0017   0.0005  -0.0036  -0.0058  -0.0087   0.0106  -0.0023
 202 H_c :3d1+  -0.0024  -0.0008   0.0062   0.0087   0.0158  -0.0184   0.0087
 204 H_c :3d2-   0.0015   0.0011  -0.0170  -0.0261  -0.0476  -0.0300  -0.0076
 205 H_c :3d1-   0.0008   0.0006   0.0014  -0.0270  -0.0308   0.0430   0.0077
 206 H_c :3d0    0.0003   0.0000  -0.0144  -0.0027  -0.0046  -0.0758  -0.0402
 207 H_c :3d1+  -0.0024  -0.0010  -0.0025   0.0308   0.0625  -0.0745   0.0105
 208 H_c :3d2+  -0.0005  -0.0006   0.0098   0.0175   0.0261   0.0173   0.0906
 216 H_c :4f3-  -0.0006   0.0001  -0.0008  -0.0017  -0.0030  -0.0116  -0.0042
 220 H_c :4f1+   0.0000  -0.0000  -0.0043   0.0016   0.0019  -0.0119  -0.0115
 222 H_c :4f3+   0.0002   0.0000  -0.0000   0.0014  -0.0008  -0.0000   0.0123

    Orbital        15       16       17       18       19
   2 P_a :1s     0.0000  -0.0376   0.0000  -0.0000  -0.0000
   3 P_a :1s     0.0000  -0.3732   0.0000  -0.0000   0.0000
   4 P_a :1s    -0.0000  -0.2556   0.0000  -0.0000   0.0001
   5 P_a :1s     0.0000  -0.2052  -0.0001   0.0000  -0.0010
   6 P_a :1s     0.0000  10.6553  -0.0004   0.0000   0.0010
   7 P_a :1s    -0.0002  11.2867  -0.0002  -0.0000   0.0015
   8 P_a :2px    0.0000  -0.0000   0.0000   0.0161   0.0000
   9 P_a :2py   -0.0175  -0.0000  -0.0162   0.0000  -0.0206
  10 P_a :2pz    0.0000  -0.0840  -0.0000   0.0000  -0.0001
  11 P_a :2px    0.0000  -0.0000  -0.0003  -0.1481   0.0003
  12 P_a :2py   -0.1535   0.0000   0.1480  -0.0003  -0.4779
  13 P_a :2pz    0.0000  -0.1707  -0.0000   0.0000  -0.0003
  14 P_a :2px   -0.0000   0.0000  -0.0001  -0.0762  -0.0000
  15 P_a :2py    0.0143   0.0000   0.0762  -0.0001   0.0288
  16 P_a :2pz   -0.0000   0.2217  -0.0000  -0.0000   0.0001
  17 P_a :2px   -0.0000   0.0000   0.0010   0.5809  -0.0004
  18 P_a :2py    0.2232   0.0000  -0.5809   0.0010   0.6190
  19 P_a :2pz   -0.0000  -1.0244   0.0001  -0.0000   0.0004
  20 P_a :2px   -0.0000   0.0000   0.0072   4.0200  -0.0016
  21 P_a :2py    0.1805   0.0000  -4.0203   0.0072   2.2290
  22 P_a :2pz    0.0000  -5.2501   0.0000   0.0000  -0.0028
  23 P_a :2px    0.0000   0.0000   0.0036   2.0090  -0.0023
  24 P_a :2py   -3.9914  -0.0001  -2.0091   0.0036   3.2449
  25 P_a :2pz    0.0000  -1.4367   0.0000   0.0000  -0.0003
  27 P_a :3d1-  -0.0086   0.0000   0.0180  -0.0000  -0.0105
  29 P_a :3d1+   0.0000  -0.0000  -0.0000  -0.0180   0.0000
  30 P_a :3d2+   0.0046  -0.0000   0.0100  -0.0000   0.0287
  31 P_a :3d2-  -0.0000   0.0000   0.0001   0.0480  -0.0000
  32 P_a :3d1-  -0.0531  -0.0000   0.0596  -0.0001  -0.0774
  33 P_a :3d0    0.0000   0.0138   0.0000  -0.0000   0.0000
  34 P_a :3d1+   0.0000   0.0000  -0.0001  -0.0596   0.0001
  35 P_a :3d2+   0.0679   0.0000  -0.0480   0.0001   0.0369
  36 P_a :3d2-  -0.0000   0.0000   0.0004   0.2172  -0.0001
  37 P_a :3d1-  -0.1895  -0.0000   0.8201  -0.0015  -0.2955
  38 P_a :3d0    0.0000   0.0709   0.0000  -0.0000   0.0003
  39 P_a :3d1+   0.0000   0.0000  -0.0015  -0.8201   0.0002
  40 P_a :3d2+   0.4275  -0.0000  -0.2171   0.0004   0.1337
  41 P_a :3d2-  -0.0000  -0.0000  -0.0017  -0.9662  -0.0012
  42 P_a :3d1-   0.6067   0.0000   2.7016  -0.0048  -0.9045
  43 P_a :3d0    0.0000   0.3971   0.0001  -0.0000   0.0022
  44 P_a :3d1+  -0.0000  -0.0000  -0.0048  -2.7015   0.0007
  45 P_a :3d2+   0.1699  -0.0000   0.9662  -0.0017   1.6306
  51 P_a :4f2+  -0.0018  -0.0000   0.0041  -0.0000  -0.0102
  53 P_a :4f3-   0.0000   0.1369  -0.0000   0.0000   0.0001
  54 P_a :4f2-   0.0000   0.0000  -0.0001  -0.0556  -0.0000
  55 P_a :4f1-   0.0159   0.0000  -0.0461   0.0001   0.0303
  56 P_a :4f0   -0.0000   0.1015  -0.0000   0.0000  -0.0000
  57 P_a :4f1+  -0.0000  -0.0000   0.0001   0.0461  -0.0000
  58 P_a :4f2+  -0.1426   0.0000   0.0556  -0.0001   0.0434
  60 P_a :4f3-  -0.0000   0.2170  -0.0000  -0.0000  -0.0001
  61 P_a :4f2-   0.0000   0.0000   0.0003   0.1594   0.0002
  62 P_a :4f1-  -0.0744   0.0000  -0.5179   0.0009  -0.0523
  63 P_a :4f0   -0.0000   0.1872  -0.0000  -0.0000  -0.0003
  64 P_a :4f1+   0.0000  -0.0000   0.0009   0.5179   0.0000
  65 P_a :4f2+  -0.0894   0.0000  -0.1594   0.0003  -0.2706
  68 P_a :5g3-  -0.0000  -0.0104   0.0000  -0.0000  -0.0000
  70 P_a :5g1-  -0.0018  -0.0000  -0.0109   0.0000   0.0007
  72 P_a :5g1+   0.0000   0.0000   0.0000   0.0109  -0.0000
  76 P_a :5g4-  -0.0000  -0.0000  -0.0000  -0.0243  -0.0000
  77 P_a :5g3-   0.0000  -0.0580   0.0000  -0.0000  -0.0000
  78 P_a :5g2-  -0.0000  -0.0000  -0.0001  -0.0346  -0.0000
  79 P_a :5g1-   0.0265   0.0000   0.0433  -0.0001  -0.0009
  80 P_a :5g0    0.0000  -0.0253   0.0000  -0.0000   0.0000
  81 P_a :5g1+  -0.0000  -0.0000  -0.0001  -0.0433   0.0000
  82 P_a :5g2+   0.0323   0.0000   0.0346  -0.0001   0.0112
  84 P_a :5g4+  -0.0206  -0.0000  -0.0243   0.0000  -0.0019
  85 H_a :1s    -0.1330   0.0259   0.1020  -0.0002  -0.1935
  86 H_a :1s    -0.0103   0.0034   0.0182  -0.0000  -0.0010
  87 H_a :1s     0.4778  -0.7451  -0.6183   0.0011   0.1394
  88 H_a :1s     0.6477  -5.4718  -3.9863   0.0071   4.1595
  89 H_a :1s    -5.6824  -2.0755  -3.1763   0.0057   5.4646
  93 H_a :2px    0.0000  -0.0000   0.0000   0.0155   0.0000
  94 H_a :2py    0.0060  -0.0033  -0.0047   0.0000  -0.0114
  96 H_a :2px   -0.0000   0.0000  -0.0002  -0.1015   0.0000
  97 H_a :2py    0.1554  -0.3618  -0.2530   0.0005   0.1838
  98 H_a :2pz    0.1023  -0.1956  -0.1110   0.0002   0.1193
  99 H_a :2px   -0.0000  -0.0000  -0.0030  -1.6800   0.0000
 100 H_a :2py    0.6804  -1.2231  -0.5971   0.0011   0.4923
 101 H_a :2pz    0.3064  -0.2596   0.1912  -0.0003   0.8722
 108 H_a :3d1-   0.0100  -0.0174  -0.0109   0.0000   0.0131
 111 H_a :3d2+  -0.0074   0.0187   0.0175  -0.0000  -0.0076
 112 H_a :3d2-  -0.0000  -0.0000  -0.0003  -0.1757   0.0001
 113 H_a :3d1-   0.0060   0.0225  -0.0262   0.0000   0.0833
 114 H_a :3d0   -0.0465   0.0357  -0.0421   0.0001   0.0406
 115 H_a :3d1+  -0.0000  -0.0000   0.0002   0.1029   0.0000
 116 H_a :3d2+  -0.0599   0.0404  -0.0970   0.0002  -0.0606
 124 H_a :4f3-  -0.0049   0.0012  -0.0198   0.0000  -0.0096
 125 H_a :4f2-  -0.0000   0.0000   0.0000   0.0184   0.0000
 126 H_a :4f1-  -0.0130   0.0132  -0.0242   0.0000   0.0086
 128 H_a :4f1+   0.0000   0.0000   0.0000   0.0198   0.0000
 129 H_a :4f2+  -0.0012  -0.0136  -0.0084   0.0000  -0.0069
 130 H_a :4f3+   0.0000  -0.0000   0.0000   0.0147  -0.0000
 131 H_b :1s     0.0665   0.0259  -0.0508   0.0884   0.0966
 132 H_b :1s     0.0051   0.0034  -0.0090   0.0157   0.0005
 133 H_b :1s    -0.2389  -0.7451   0.3083  -0.5361  -0.0695
 134 H_b :1s    -0.3238  -5.4718   1.9873  -3.4558  -2.0782
 135 H_b :1s     2.8412  -2.0752   1.5833  -2.7535  -2.7291
 140 H_b :2py   -0.0036   0.0017  -0.0128  -0.0047  -0.0108
 142 H_b :2px    0.0257   0.3134  -0.1533   0.1647   0.1053
 143 H_b :2py    0.1109   0.1809   0.0132   0.1535   0.0010
 144 H_b :2pz   -0.0511  -0.1956   0.0554  -0.0963  -0.0595
 145 H_b :2px   -0.0146   1.0592  -0.9860   0.0295   0.2254
 146 H_b :2py    0.7058   0.6116   1.1126   0.9841   0.1025
 147 H_b :2pz   -0.1532  -0.2596  -0.0952   0.1657  -0.4341
 153 H_b :3d2-  -0.0082  -0.0162   0.0057  -0.0142   0.0027
 156 H_b :3d1+   0.0023   0.0150  -0.0035   0.0089   0.0097
 157 H_b :3d2+   0.0069  -0.0094   0.0076  -0.0057  -0.0122
 158 H_b :3d2-  -0.0906  -0.0350  -0.1180   0.0290   0.0163
 159 H_b :3d1-   0.0194  -0.0112  -0.0838  -0.0330  -0.0229
 160 H_b :3d0    0.0232   0.0357   0.0210  -0.0365  -0.0203
 161 H_b :3d1+  -0.0077  -0.0195   0.0333   0.0454   0.0610
 162 H_b :3d2+   0.0970  -0.0202   0.1077   0.1179  -0.0887
 170 H_b :4f3-   0.0024   0.0012   0.0099  -0.0171   0.0048
 171 H_b :4f2-  -0.0054   0.0118   0.0044   0.0109   0.0060
 172 H_b :4f1-  -0.0085  -0.0066  -0.0209   0.0020   0.0004
 174 H_b :4f1+  -0.0026  -0.0114  -0.0019   0.0231   0.0048
 175 H_b :4f2+   0.0081   0.0068  -0.0159  -0.0043  -0.0173
 176 H_b :4f3+  -0.0213  -0.0000  -0.0128  -0.0074   0.0232
 177 H_c :1s     0.0665   0.0259  -0.0512  -0.0882   0.0968
 178 H_c :1s     0.0051   0.0034  -0.0091  -0.0157   0.0005
 179 H_c :1s    -0.2389  -0.7451   0.3102   0.5350  -0.0697
 180 H_c :1s    -0.3238  -5.4718   1.9996   3.4487  -2.0834
 181 H_c :1s     2.8413  -2.0752   1.5931   2.7479  -2.7360
 186 H_c :2py   -0.0036   0.0017  -0.0128   0.0047  -0.0108
 188 H_c :2px   -0.0257  -0.3134   0.1539   0.1641  -0.1055
 189 H_c :2py    0.1109   0.1809   0.0126  -0.1536   0.0011
 190 H_c :2pz   -0.0511  -0.1956   0.0557   0.0961  -0.0596
 191 H_c :2px    0.0146  -1.0592   0.9861   0.0260  -0.2260
 192 H_c :2py    0.7058   0.6116   1.1090  -0.9881   0.1028
 193 H_c :2pz   -0.1532  -0.2596  -0.0958  -0.1654  -0.4352
 199 H_c :3d2-   0.0082   0.0162  -0.0057  -0.0142  -0.0027
 202 H_c :3d1+  -0.0023  -0.0150   0.0035   0.0089  -0.0098
 203 H_c :3d2+   0.0069  -0.0094   0.0076   0.0057  -0.0122
 204 H_c :3d2-   0.0906   0.0350   0.1181   0.0286  -0.0162
 205 H_c :3d1-   0.0194  -0.0112  -0.0837   0.0333  -0.0228
 206 H_c :3d0    0.0232   0.0357   0.0211   0.0364  -0.0204
 207 H_c :3d1+   0.0077   0.0195  -0.0331   0.0455  -0.0610
 208 H_c :3d2+   0.0970  -0.0202   0.1073  -0.1183  -0.0887
 216 H_c :4f3-   0.0024   0.0012   0.0099   0.0171   0.0048
 217 H_c :4f2-   0.0054  -0.0118  -0.0043   0.0109  -0.0060
 218 H_c :4f1-  -0.0085  -0.0066  -0.0209  -0.0019   0.0004
 220 H_c :4f1+   0.0026   0.0114   0.0020   0.0231  -0.0048
 221 H_c :4f2+   0.0081   0.0068  -0.0159   0.0044  -0.0173
 222 H_c :4f3+   0.0213   0.0000   0.0128  -0.0074  -0.0231

  Total CPU  time used in SIRIUS :  1 minute  23 seconds
  Total wall time used in SIRIUS :  1 minute  23 seconds

 
     Date and time (Linux)  : Fri Sep 29 06:30:25 2023
     Host name              : sn-mem                                  


                     .---------------------------------------.
                     | End of Wave Function Section (SIRIUS) |
                     `---------------------------------------'



                 .------------------------------------------------.
                 | Starting in Dynamic Property Section (RESPONS) |
                 `------------------------------------------------'


 ----------------------------------------------------------------------------------------
  RESPONSE  -  an MCSCF, MC-srDFT, DFT, SOPPA and SOPPA-srDFT response property program
 ----------------------------------------------------------------------------------------


 -------- OUTPUT FROM RESPONSE INPUT PROCESSING --------




 Quadratic Response calculation
 ------------------------------

 First hyperpolarizability calculation : HYPCAL= T

 Spin of operator A , ISPINA=    0
 Spin of operator B , ISPINB=    0
 Spin of operator C , ISPINC=    0

  5 B-frequencies  0.000000D+00  1.647050D-02  3.294100D-02  4.941150D-02  6.588200D-02
  5 C-frequencies  0.000000D+00  1.647050D-02  3.294100D-02  4.941150D-02  6.588200D-02


 Print level                                    : IPRHYP =   2
 Maximum number of iterations in lin.rsp. solver: MAXITL =  60
 Threshold for convergence of linear resp. eq.s : THCLR  = 1.000D-03
 Maximum iterations in optimal orbital algorithm: MAXITO =   5
 Direct one-index transformation                : DIROIT = T

    3 A OPERATORS OF SYMMETRY NO:    1 AND LABELS:

          XDIPLEN 
          YDIPLEN 
          ZDIPLEN 

    3 B OPERATORS OF SYMMETRY NO:    1 AND LABELS:

          XDIPLEN 
          YDIPLEN 
          ZDIPLEN 

    3 C OPERATORS OF SYMMETRY NO:    1 AND LABELS:

          XDIPLEN 
          YDIPLEN 
          ZDIPLEN 


   SCF energy         :     -342.492266241575862
 -- inactive part     :     -360.018546947929053
 -- nuclear repulsion :       17.526280706353216


                     ***************************************
                     *** RHF response calculation (TDHF) ***
                     ***************************************



 Linear response calculations for quadratic response
 - singlet property operator of symmetry    1  ( A  )


 Perturbation symmetry.     KSYMOP:           1
 Perturbation spin symmetry.TRPLET:           F
 Orbital variables.         KZWOPT:        1917
 Configuration variables.   KZCONF:           0
 Total number of variables. KZVAR :        1917


 QRLRVE -- linear response calculation for symmetry  1  ( A  )
 QRLRVE -- operator label : XDIPLEN 
 QRLRVE -- operator spin  :   0
 QRLRVE -- frequencies :  0.000000  0.016470  0.032941  0.049411  0.065882
                          0.082352  0.098823  0.115293  0.131764



 ---  SOLVING SETS OF LINEAR EQUATIONS FOR LINEAR RESPONSE PROPERTIES ---

 Operator symmetry = 1  ( A  ); triplet =   F


 ** RSPCTL MICROITERATION NUMBER    1

       No.  Residual tot.,    conf., and orb.    Bnorm      Frequency 
      ----------------------------------------------------------------
         1    1.73720D+00  0.00D+00  1.74D+00  4.94D+00    0.00000D+00
         2    1.73976D+00  0.00D+00  1.74D+00  4.95D+00    1.64705D-02
         3    1.74748D+00  0.00D+00  1.75D+00  5.00D+00    3.29410D-02
         4    1.76058D+00  0.00D+00  1.76D+00  5.08D+00    4.94115D-02
         5    1.77940D+00  0.00D+00  1.78D+00  5.19D+00    6.58820D-02
         6    1.80445D+00  0.00D+00  1.80D+00  5.34D+00    8.23525D-02
         7    1.83651D+00  0.00D+00  1.84D+00  5.53D+00    9.88230D-02
         8    1.87661D+00  0.00D+00  1.88D+00  5.77D+00    1.15293D-01
         9    1.92624D+00  0.00D+00  1.93D+00  6.07D+00    1.31764D-01

 ** RSPCTL MICROITERATION NUMBER    2

       No.  Residual tot.,    conf., and orb.    Bnorm      Frequency 
      ----------------------------------------------------------------
         1    2.47601D-01  0.00D+00  2.48D-01  5.30D+00    0.00000D+00
         2    2.48322D-01  0.00D+00  2.48D-01  5.32D+00    1.64705D-02
         3    2.50511D-01  0.00D+00  2.51D-01  5.37D+00    3.29410D-02
         4    2.54255D-01  0.00D+00  2.54D-01  5.46D+00    4.94115D-02
         5    2.59705D-01  0.00D+00  2.60D-01  5.59D+00    6.58820D-02
         6    2.67104D-01  0.00D+00  2.67D-01  5.76D+00    8.23525D-02
         7    2.76811D-01  0.00D+00  2.77D-01  5.99D+00    9.88230D-02
         8    2.89371D-01  0.00D+00  2.89D-01  6.27D+00    1.15293D-01
         9    3.05613D-01  0.00D+00  3.06D-01  6.63D+00    1.31764D-01

 ** RSPCTL MICROITERATION NUMBER    3

       No.  Residual tot.,    conf., and orb.    Bnorm      Frequency 
      ----------------------------------------------------------------
         1    2.03562D-02  0.00D+00  2.04D-02  5.31D+00    0.00000D+00
         2    2.04930D-02  0.00D+00  2.05D-02  5.32D+00    1.64705D-02
         3    2.09113D-02  0.00D+00  2.09D-02  5.38D+00    3.29410D-02
         4    2.16362D-02  0.00D+00  2.16D-02  5.47D+00    4.94115D-02
         5    2.27129D-02  0.00D+00  2.27D-02  5.60D+00    6.58820D-02
         6    2.42140D-02  0.00D+00  2.42D-02  5.77D+00    8.23525D-02
         7    2.62514D-02  0.00D+00  2.63D-02  6.00D+00    9.88230D-02
         8    2.89972D-02  0.00D+00  2.90D-02  6.28D+00    1.15293D-01
         9    3.27222D-02  0.00D+00  3.27D-02  6.65D+00    1.31764D-01

 ** RSPCTL MICROITERATION NUMBER    4

       No.  Residual tot.,    conf., and orb.    Bnorm      Frequency 
      ----------------------------------------------------------------
         1    1.96735D-03  0.00D+00  1.97D-03  5.31D+00    0.00000D+00
         2    1.98586D-03  0.00D+00  1.99D-03  5.32D+00    1.64705D-02
         3    2.04327D-03  0.00D+00  2.04D-03  5.38D+00    3.29410D-02
         4    2.14554D-03  0.00D+00  2.15D-03  5.47D+00    4.94115D-02
         5    2.30362D-03  0.00D+00  2.30D-03  5.60D+00    6.58820D-02
         6    2.53525D-03  0.00D+00  2.54D-03  5.77D+00    8.23525D-02
         7    2.86820D-03  0.00D+00  2.87D-03  6.00D+00    9.88230D-02
         8    3.34590D-03  0.00D+00  3.35D-03  6.28D+00    1.15293D-01
         9    4.03779D-03  0.00D+00  4.04D-03  6.65D+00    1.31764D-01

 *** THE REQUESTED    9 SOLUTION VECTORS CONVERGED

 Convergence of RSP solution vectors, threshold = 1.00D-03
 ---------------------------------------------------------------
 (dimension of paired reduced space:   72)
 RSP solution vector no.    1; norm of residual   3.71D-04
 RSP solution vector no.    2; norm of residual   3.73D-04
 RSP solution vector no.    3; norm of residual   3.80D-04
 RSP solution vector no.    4; norm of residual   3.92D-04
 RSP solution vector no.    5; norm of residual   4.12D-04
 RSP solution vector no.    6; norm of residual   4.39D-04
 RSP solution vector no.    7; norm of residual   4.78D-04
 RSP solution vector no.    8; norm of residual   5.33D-04
 RSP solution vector no.    9; norm of residual   6.07D-04

 *** RSPCTL MICROITERATIONS CONVERGED

@ QRLRVE: SINGLET SOLUTION FOR SYMMETRY    1  ( A  )    LABEL   XDIPLEN     FREQUENCY   0.000000D+00

@ QRLRVE:  << XDIPLEN  ; XDIPLEN  >> (   0.00000):     29.5111492372    

@ QRLRVE:  << YDIPLEN  ; XDIPLEN  >> (   0.00000):   -5.071146456609E-05

@ QRLRVE:  << ZDIPLEN  ; XDIPLEN  >> (   0.00000):   -4.558345893154E-05

@ QRLRVE: SINGLET SOLUTION FOR SYMMETRY    1  ( A  )    LABEL   XDIPLEN     FREQUENCY   0.164705D-01

@ QRLRVE:  << XDIPLEN  ; XDIPLEN  >> (   0.01647):     29.5580111438    

@ QRLRVE:  << YDIPLEN  ; XDIPLEN  >> (   0.01647):   -5.224308000202E-05

@ QRLRVE:  << ZDIPLEN  ; XDIPLEN  >> (   0.01647):   -3.816666490356E-05

@ QRLRVE: SINGLET SOLUTION FOR SYMMETRY    1  ( A  )    LABEL   XDIPLEN     FREQUENCY   0.329410D-01

@ QRLRVE:  << XDIPLEN  ; XDIPLEN  >> (   0.03294):     29.6998224611    

@ QRLRVE:  << YDIPLEN  ; XDIPLEN  >> (   0.03294):   -5.694845488396E-05

@ QRLRVE:  << ZDIPLEN  ; XDIPLEN  >> (   0.03294):   -1.529520230464E-05

@ QRLRVE: SINGLET SOLUTION FOR SYMMETRY    1  ( A  )    LABEL   XDIPLEN     FREQUENCY   0.494115D-01

@ QRLRVE:  << XDIPLEN  ; XDIPLEN  >> (   0.04941):     29.9403621011    

@ QRLRVE:  << YDIPLEN  ; XDIPLEN  >> (   0.04941):   -6.517593543817E-05

@ QRLRVE:  << ZDIPLEN  ; XDIPLEN  >> (   0.04941):    2.498565338947E-05

@ QRLRVE: SINGLET SOLUTION FOR SYMMETRY    1  ( A  )    LABEL   XDIPLEN     FREQUENCY   0.658820D-01

@ QRLRVE:  << XDIPLEN  ; XDIPLEN  >> (   0.06588):     30.2862874553    

@ QRLRVE:  << YDIPLEN  ; XDIPLEN  >> (   0.06588):   -7.756676836589E-05

@ QRLRVE:  << ZDIPLEN  ; XDIPLEN  >> (   0.06588):    8.626147925603E-05

@ QRLRVE: SINGLET SOLUTION FOR SYMMETRY    1  ( A  )    LABEL   XDIPLEN     FREQUENCY   0.823525D-01

@ QRLRVE:  << XDIPLEN  ; XDIPLEN  >> (   0.08235):     30.7477452769    

@ QRLRVE:  << YDIPLEN  ; XDIPLEN  >> (   0.08235):   -9.516511099405E-05

@ QRLRVE:  << ZDIPLEN  ; XDIPLEN  >> (   0.08235):    1.743288016606E-04

@ QRLRVE: SINGLET SOLUTION FOR SYMMETRY    1  ( A  )    LABEL   XDIPLEN     FREQUENCY   0.988230D-01

@ QRLRVE:  << XDIPLEN  ; XDIPLEN  >> (   0.09882):     31.3393968879    

@ QRLRVE:  << YDIPLEN  ; XDIPLEN  >> (   0.09882):   -1.196194336031E-04

@ QRLRVE:  << ZDIPLEN  ; XDIPLEN  >> (   0.09882):    2.982214498529E-04

@ QRLRVE: SINGLET SOLUTION FOR SYMMETRY    1  ( A  )    LABEL   XDIPLEN     FREQUENCY   0.115293D+00

@ QRLRVE:  << XDIPLEN  ; XDIPLEN  >> (   0.11529):     32.0821027518    

@ QRLRVE:  << YDIPLEN  ; XDIPLEN  >> (   0.11529):   -1.535512263134E-04

@ QRLRVE:  << ZDIPLEN  ; XDIPLEN  >> (   0.11529):    4.720071964462E-04

@ QRLRVE: SINGLET SOLUTION FOR SYMMETRY    1  ( A  )    LABEL   XDIPLEN     FREQUENCY   0.131764D+00

@ QRLRVE:  << XDIPLEN  ; XDIPLEN  >> (   0.13176):     33.0057396122    

@ QRLRVE:  << YDIPLEN  ; XDIPLEN  >> (   0.13176):   -2.012529586062E-04

@ QRLRVE:  << ZDIPLEN  ; XDIPLEN  >> (   0.13176):    7.180086064322E-04


 QRLRVE -- linear response calculation for symmetry  1  ( A  )
 QRLRVE -- operator label : YDIPLEN 
 QRLRVE -- operator spin  :   0
 QRLRVE -- frequencies :  0.000000  0.016470  0.032941  0.049411  0.065882
                          0.082352  0.098823  0.115293  0.131764



 ---  SOLVING SETS OF LINEAR EQUATIONS FOR LINEAR RESPONSE PROPERTIES ---

 Operator symmetry = 1  ( A  ); triplet =   F


 ** RSPCTL MICROITERATION NUMBER    1

       No.  Residual tot.,    conf., and orb.    Bnorm      Frequency 
      ----------------------------------------------------------------
         1    1.74114D+00  0.00D+00  1.74D+00  4.94D+00    0.00000D+00
         2    1.74372D+00  0.00D+00  1.74D+00  4.96D+00    1.64705D-02
         3    1.75151D+00  0.00D+00  1.75D+00  5.00D+00    3.29410D-02
         4    1.76471D+00  0.00D+00  1.76D+00  5.08D+00    4.94115D-02
         5    1.78369D+00  0.00D+00  1.78D+00  5.19D+00    6.58820D-02
         6    1.80895D+00  0.00D+00  1.81D+00  5.34D+00    8.23525D-02
         7    1.84128D+00  0.00D+00  1.84D+00  5.54D+00    9.88230D-02
         8    1.88174D+00  0.00D+00  1.88D+00  5.78D+00    1.15293D-01
         9    1.93183D+00  0.00D+00  1.93D+00  6.08D+00    1.31764D-01

 ** RSPCTL MICROITERATION NUMBER    2

       No.  Residual tot.,    conf., and orb.    Bnorm      Frequency 
      ----------------------------------------------------------------
         1    2.48638D-01  0.00D+00  2.49D-01  5.30D+00    0.00000D+00
         2    2.49349D-01  0.00D+00  2.49D-01  5.32D+00    1.64705D-02
         3    2.51511D-01  0.00D+00  2.52D-01  5.37D+00    3.29410D-02
         4    2.55209D-01  0.00D+00  2.55D-01  5.46D+00    4.94115D-02
         5    2.60599D-01  0.00D+00  2.61D-01  5.59D+00    6.58820D-02
         6    2.67922D-01  0.00D+00  2.68D-01  5.76D+00    8.23525D-02
         7    2.77546D-01  0.00D+00  2.78D-01  5.99D+00    9.88230D-02
         8    2.90023D-01  0.00D+00  2.90D-01  6.27D+00    1.15293D-01
         9    3.06199D-01  0.00D+00  3.06D-01  6.64D+00    1.31764D-01

 ** RSPCTL MICROITERATION NUMBER    3

       No.  Residual tot.,    conf., and orb.    Bnorm      Frequency 
      ----------------------------------------------------------------
         1    1.94634D-02  0.00D+00  1.95D-02  5.31D+00    0.00000D+00
         2    1.95878D-02  0.00D+00  1.96D-02  5.32D+00    1.64705D-02
         3    1.99679D-02  0.00D+00  2.00D-02  5.38D+00    3.29410D-02
         4    2.06252D-02  0.00D+00  2.06D-02  5.47D+00    4.94115D-02
         5    2.15989D-02  0.00D+00  2.16D-02  5.60D+00    6.58820D-02
         6    2.29519D-02  0.00D+00  2.30D-02  5.77D+00    8.23525D-02
         7    2.47816D-02  0.00D+00  2.48D-02  6.00D+00    9.88230D-02
         8    2.72393D-02  0.00D+00  2.72D-02  6.28D+00    1.15293D-01
         9    3.05656D-02  0.00D+00  3.06D-02  6.65D+00    1.31764D-01

 ** RSPCTL MICROITERATION NUMBER    4

       No.  Residual tot.,    conf., and orb.    Bnorm      Frequency 
      ----------------------------------------------------------------
         1    2.25632D-03  0.00D+00  2.26D-03  5.31D+00    0.00000D+00
         2    2.28151D-03  0.00D+00  2.28D-03  5.32D+00    1.64705D-02
         3    2.35908D-03  0.00D+00  2.36D-03  5.38D+00    3.29410D-02
         4    2.49524D-03  0.00D+00  2.50D-03  5.47D+00    4.94115D-02
         5    2.70131D-03  0.00D+00  2.70D-03  5.60D+00    6.58820D-02
         6    2.99557D-03  0.00D+00  3.00D-03  5.77D+00    8.23525D-02
         7    3.40639D-03  0.00D+00  3.41D-03  6.00D+00    9.88230D-02
         8    3.97802D-03  0.00D+00  3.98D-03  6.28D+00    1.15293D-01
         9    4.78096D-03  0.00D+00  4.78D-03  6.65D+00    1.31764D-01

 *** THE REQUESTED    9 SOLUTION VECTORS CONVERGED

 Convergence of RSP solution vectors, threshold = 1.00D-03
 ---------------------------------------------------------------
 (dimension of paired reduced space:   72)
 RSP solution vector no.    1; norm of residual   4.25D-04
 RSP solution vector no.    2; norm of residual   4.29D-04
 RSP solution vector no.    3; norm of residual   4.39D-04
 RSP solution vector no.    4; norm of residual   4.56D-04
 RSP solution vector no.    5; norm of residual   4.83D-04
 RSP solution vector no.    6; norm of residual   5.19D-04
 RSP solution vector no.    7; norm of residual   5.68D-04
 RSP solution vector no.    8; norm of residual   6.33D-04
 RSP solution vector no.    9; norm of residual   7.19D-04

 *** RSPCTL MICROITERATIONS CONVERGED

@ QRLRVE: SINGLET SOLUTION FOR SYMMETRY    1  ( A  )    LABEL   YDIPLEN     FREQUENCY   0.000000D+00

@ QRLRVE:  << XDIPLEN  ; YDIPLEN  >> (   0.00000):    7.065604084676E-05

@ QRLRVE:  << YDIPLEN  ; YDIPLEN  >> (   0.00000):     29.5118242851    

@ QRLRVE:  << ZDIPLEN  ; YDIPLEN  >> (   0.00000):    7.798575606222E-05

@ QRLRVE: SINGLET SOLUTION FOR SYMMETRY    1  ( A  )    LABEL   YDIPLEN     FREQUENCY   0.164705D-01

@ QRLRVE:  << XDIPLEN  ; YDIPLEN  >> (   0.01647):    7.186885389341E-05

@ QRLRVE:  << YDIPLEN  ; YDIPLEN  >> (   0.01647):     29.5586881218    

@ QRLRVE:  << ZDIPLEN  ; YDIPLEN  >> (   0.01647):    8.625119051209E-05

@ QRLRVE: SINGLET SOLUTION FOR SYMMETRY    1  ( A  )    LABEL   YDIPLEN     FREQUENCY   0.329410D-01

@ QRLRVE:  << XDIPLEN  ; YDIPLEN  >> (   0.03294):    7.545950857371E-05

@ QRLRVE:  << YDIPLEN  ; YDIPLEN  >> (   0.03294):     29.7005052896    

@ QRLRVE:  << ZDIPLEN  ; YDIPLEN  >> (   0.03294):    1.119356368633E-04

@ QRLRVE: SINGLET SOLUTION FOR SYMMETRY    1  ( A  )    LABEL   YDIPLEN     FREQUENCY   0.494115D-01

@ QRLRVE:  << XDIPLEN  ; YDIPLEN  >> (   0.04941):    8.127088017607E-05

@ QRLRVE:  << YDIPLEN  ; YDIPLEN  >> (   0.04941):     29.9410548855    

@ QRLRVE:  << ZDIPLEN  ; YDIPLEN  >> (   0.04941):    1.578706351135E-04

@ QRLRVE: SINGLET SOLUTION FOR SYMMETRY    1  ( A  )    LABEL   YDIPLEN     FREQUENCY   0.658820D-01

@ QRLRVE:  << XDIPLEN  ; YDIPLEN  >> (   0.06588):    8.899210542617E-05

@ QRLRVE:  << YDIPLEN  ; YDIPLEN  >> (   0.06588):     30.2869946250    

@ QRLRVE:  << ZDIPLEN  ; YDIPLEN  >> (   0.06588):    2.293830164606E-04

@ QRLRVE: SINGLET SOLUTION FOR SYMMETRY    1  ( A  )    LABEL   YDIPLEN     FREQUENCY   0.823525D-01

@ QRLRVE:  << XDIPLEN  ; YDIPLEN  >> (   0.08235):    9.807351670070E-05

@ QRLRVE:  << YDIPLEN  ; YDIPLEN  >> (   0.08235):     30.7484717508    

@ QRLRVE:  << ZDIPLEN  ; YDIPLEN  >> (   0.08235):    3.354060854129E-04

@ QRLRVE: SINGLET SOLUTION FOR SYMMETRY    1  ( A  )    LABEL   YDIPLEN     FREQUENCY   0.988230D-01

@ QRLRVE:  << XDIPLEN  ; YDIPLEN  >> (   0.09882):    1.075813371107E-04

@ QRLRVE:  << YDIPLEN  ; YDIPLEN  >> (   0.09882):     31.3401482808    

@ QRLRVE:  << ZDIPLEN  ; YDIPLEN  >> (   0.09882):    4.905316592691E-04

@ QRLRVE: SINGLET SOLUTION FOR SYMMETRY    1  ( A  )    LABEL   YDIPLEN     FREQUENCY   0.115293D+00

@ QRLRVE:  << XDIPLEN  ; YDIPLEN  >> (   0.11529):    1.159580154680E-04

@ QRLRVE:  << YDIPLEN  ; YDIPLEN  >> (   0.11529):     32.0828856427    

@ QRLRVE:  << ZDIPLEN  ; YDIPLEN  >> (   0.11529):    7.187920337509E-04

@ QRLRVE: SINGLET SOLUTION FOR SYMMETRY    1  ( A  )    LABEL   YDIPLEN     FREQUENCY   0.131764D+00

@ QRLRVE:  << XDIPLEN  ; YDIPLEN  >> (   0.13176):    1.206310134788E-04

@ QRLRVE:  << YDIPLEN  ; YDIPLEN  >> (   0.13176):     33.0065619016    

@ QRLRVE:  << ZDIPLEN  ; YDIPLEN  >> (   0.13176):    1.060840459593E-03


 QRLRVE -- linear response calculation for symmetry  1  ( A  )
 QRLRVE -- operator label : ZDIPLEN 
 QRLRVE -- operator spin  :   0
 QRLRVE -- frequencies :  0.000000  0.016470  0.032941  0.049411  0.065882
                          0.082352  0.098823  0.115293  0.131764



 ---  SOLVING SETS OF LINEAR EQUATIONS FOR LINEAR RESPONSE PROPERTIES ---

 Operator symmetry = 1  ( A  ); triplet =   F


 ** RSPCTL MICROITERATION NUMBER    1

       No.  Residual tot.,    conf., and orb.    Bnorm      Frequency 
      ----------------------------------------------------------------
         1    1.61255D+00  0.00D+00  1.61D+00  5.37D+00    0.00000D+00
         2    1.61467D+00  0.00D+00  1.61D+00  5.39D+00    1.64705D-02
         3    1.62111D+00  0.00D+00  1.62D+00  5.45D+00    3.29410D-02
         4    1.63203D+00  0.00D+00  1.63D+00  5.55D+00    4.94115D-02
         5    1.64774D+00  0.00D+00  1.65D+00  5.70D+00    6.58820D-02
         6    1.66873D+00  0.00D+00  1.67D+00  5.90D+00    8.23525D-02
         7    1.69570D+00  0.00D+00  1.70D+00  6.15D+00    9.88230D-02
         8    1.72968D+00  0.00D+00  1.73D+00  6.48D+00    1.15293D-01
         9    1.77221D+00  0.00D+00  1.77D+00  6.90D+00    1.31764D-01

 ** RSPCTL MICROITERATION NUMBER    2

       No.  Residual tot.,    conf., and orb.    Bnorm      Frequency 
      ----------------------------------------------------------------
         1    3.04302D-01  0.00D+00  3.04D-01  5.68D+00    0.00000D+00
         2    3.04881D-01  0.00D+00  3.05D-01  5.70D+00    1.64705D-02
         3    3.06634D-01  0.00D+00  3.07D-01  5.76D+00    3.29410D-02
         4    3.09611D-01  0.00D+00  3.10D-01  5.87D+00    4.94115D-02
         5    3.13898D-01  0.00D+00  3.14D-01  6.04D+00    6.58820D-02
         6    3.19628D-01  0.00D+00  3.20D-01  6.25D+00    8.23525D-02
         7    3.26994D-01  0.00D+00  3.27D-01  6.54D+00    9.88230D-02
         8    3.36274D-01  0.00D+00  3.36D-01  6.91D+00    1.15293D-01
         9    3.47875D-01  0.00D+00  3.48D-01  7.39D+00    1.31764D-01

 ** RSPCTL MICROITERATION NUMBER    3

       No.  Residual tot.,    conf., and orb.    Bnorm      Frequency 
      ----------------------------------------------------------------
         1    3.54705D-02  0.00D+00  3.55D-02  5.68D+00    0.00000D+00
         2    3.55613D-02  0.00D+00  3.56D-02  5.71D+00    1.64705D-02
         3    3.58379D-02  0.00D+00  3.58D-02  5.77D+00    3.29410D-02
         4    3.63128D-02  0.00D+00  3.63D-02  5.88D+00    4.94115D-02
         5    3.70087D-02  0.00D+00  3.70D-02  6.04D+00    6.58820D-02
         6    3.79616D-02  0.00D+00  3.80D-02  6.26D+00    8.23525D-02
         7    3.92256D-02  0.00D+00  3.92D-02  6.55D+00    9.88230D-02
         8    4.08826D-02  0.00D+00  4.09D-02  6.92D+00    1.15293D-01
         9    4.30576D-02  0.00D+00  4.31D-02  7.40D+00    1.31764D-01

 ** RSPCTL MICROITERATION NUMBER    4

       No.  Residual tot.,    conf., and orb.    Bnorm      Frequency 
      ----------------------------------------------------------------
         1    2.62445D-03  0.00D+00  2.62D-03  5.68D+00    0.00000D+00
         2    2.63594D-03  0.00D+00  2.64D-03  5.71D+00    1.64705D-02
         3    2.67114D-03  0.00D+00  2.67D-03  5.77D+00    3.29410D-02
         4    2.73236D-03  0.00D+00  2.73D-03  5.88D+00    4.94115D-02
         5    2.82375D-03  0.00D+00  2.82D-03  6.04D+00    6.58820D-02
         6    2.95200D-03  0.00D+00  2.95D-03  6.26D+00    8.23525D-02
         7    3.12733D-03  0.00D+00  3.13D-03  6.55D+00    9.88230D-02
         8    3.36533D-03  0.00D+00  3.37D-03  6.92D+00    1.15293D-01
         9    3.69009D-03  0.00D+00  3.69D-03  7.40D+00    1.31764D-01

 *** THE REQUESTED    9 SOLUTION VECTORS CONVERGED

 Convergence of RSP solution vectors, threshold = 1.00D-03
 ---------------------------------------------------------------
 (dimension of paired reduced space:   72)
 RSP solution vector no.    1; norm of residual   4.62D-04
 RSP solution vector no.    2; norm of residual   4.62D-04
 RSP solution vector no.    3; norm of residual   4.63D-04
 RSP solution vector no.    4; norm of residual   4.65D-04
 RSP solution vector no.    5; norm of residual   4.67D-04
 RSP solution vector no.    6; norm of residual   4.72D-04
 RSP solution vector no.    7; norm of residual   4.78D-04
 RSP solution vector no.    8; norm of residual   4.86D-04
 RSP solution vector no.    9; norm of residual   4.99D-04

 *** RSPCTL MICROITERATIONS CONVERGED

@ QRLRVE: SINGLET SOLUTION FOR SYMMETRY    1  ( A  )    LABEL   ZDIPLEN     FREQUENCY   0.000000D+00

@ QRLRVE:  << XDIPLEN  ; ZDIPLEN  >> (   0.00000):    8.180704070300E-05

@ QRLRVE:  << YDIPLEN  ; ZDIPLEN  >> (   0.00000):    1.318039759942E-03

@ QRLRVE:  << ZDIPLEN  ; ZDIPLEN  >> (   0.00000):     30.4942425757    

@ QRLRVE: SINGLET SOLUTION FOR SYMMETRY    1  ( A  )    LABEL   ZDIPLEN     FREQUENCY   0.164705D-01

@ QRLRVE:  << XDIPLEN  ; ZDIPLEN  >> (   0.01647):    8.743591786548E-05

@ QRLRVE:  << YDIPLEN  ; ZDIPLEN  >> (   0.01647):    1.325095253396E-03

@ QRLRVE:  << ZDIPLEN  ; ZDIPLEN  >> (   0.01647):     30.5497506465    

@ QRLRVE: SINGLET SOLUTION FOR SYMMETRY    1  ( A  )    LABEL   ZDIPLEN     FREQUENCY   0.329410D-01

@ QRLRVE:  << XDIPLEN  ; ZDIPLEN  >> (   0.03294):    1.047435703956E-04

@ QRLRVE:  << YDIPLEN  ; ZDIPLEN  >> (   0.03294):    1.346531981062E-03

@ QRLRVE:  << ZDIPLEN  ; ZDIPLEN  >> (   0.03294):     30.7180143496    

@ QRLRVE: SINGLET SOLUTION FOR SYMMETRY    1  ( A  )    LABEL   ZDIPLEN     FREQUENCY   0.494115D-01

@ QRLRVE:  << XDIPLEN  ; ZDIPLEN  >> (   0.04941):    1.350538037160E-04

@ QRLRVE:  << YDIPLEN  ; ZDIPLEN  >> (   0.04941):    1.383184764940E-03

@ QRLRVE:  << ZDIPLEN  ; ZDIPLEN  >> (   0.04941):     31.0044234907    

@ QRLRVE: SINGLET SOLUTION FOR SYMMETRY    1  ( A  )    LABEL   ZDIPLEN     FREQUENCY   0.658820D-01

@ QRLRVE:  << XDIPLEN  ; ZDIPLEN  >> (   0.06588):    1.807914888522E-04

@ QRLRVE:  << YDIPLEN  ; ZDIPLEN  >> (   0.06588):    1.436530000246E-03

@ QRLRVE:  << ZDIPLEN  ; ZDIPLEN  >> (   0.06588):     31.4185683219    

@ QRLRVE: SINGLET SOLUTION FOR SYMMETRY    1  ( A  )    LABEL   ZDIPLEN     FREQUENCY   0.823525D-01

@ QRLRVE:  << XDIPLEN  ; ZDIPLEN  >> (   0.08235):    2.458735166701E-04

@ QRLRVE:  << YDIPLEN  ; ZDIPLEN  >> (   0.08235):    1.508831718759E-03

@ QRLRVE:  << ZDIPLEN  ; ZDIPLEN  >> (   0.08235):     31.9752902602    

@ QRLRVE: SINGLET SOLUTION FOR SYMMETRY    1  ( A  )    LABEL   ZDIPLEN     FREQUENCY   0.988230D-01

@ QRLRVE:  << XDIPLEN  ; ZDIPLEN  >> (   0.09882):    3.364121089936E-04

@ QRLRVE:  << YDIPLEN  ; ZDIPLEN  >> (   0.09882):    1.603391093165E-03

@ QRLRVE:  << ZDIPLEN  ; ZDIPLEN  >> (   0.09882):     32.6964887170    

@ QRLRVE: SINGLET SOLUTION FOR SYMMETRY    1  ( A  )    LABEL   ZDIPLEN     FREQUENCY   0.115293D+00

@ QRLRVE:  << XDIPLEN  ; ZDIPLEN  >> (   0.11529):    4.619766168992E-04

@ QRLRVE:  << YDIPLEN  ; ZDIPLEN  >> (   0.11529):    1.724968673498E-03

@ QRLRVE:  << ZDIPLEN  ; ZDIPLEN  >> (   0.11529):     33.6141864389    

@ QRLRVE: SINGLET SOLUTION FOR SYMMETRY    1  ( A  )    LABEL   ZDIPLEN     FREQUENCY   0.131764D+00

@ QRLRVE:  << XDIPLEN  ; ZDIPLEN  >> (   0.13176):    6.379343188422E-04

@ QRLRVE:  << YDIPLEN  ; ZDIPLEN  >> (   0.13176):    1.880523752459E-03

@ QRLRVE:  << ZDIPLEN  ; ZDIPLEN  >> (   0.13176):     34.7758627585    
 
 ======================================================================
 ---  L I N E A R   R E S P O N S E   F U N C T I O N S --- 
 ======================================================================

 The -<<A;B>>(omega_b) functions from vectors generated
 in a *QUADRA calculation of <<A;B,C>>(omega_b,omega_c)

 Note: the accuracy of off-diagonal elements will be linear
 in the convergence threshold THCLR =  1.00D-03


 Perturbation symmetry.     KSYMOP:           1
 Perturbation spin symmetry.TRPLET:           F
 Orbital variables.         KZWOPT:        1917
 Configuration variables.   KZCONF:           0
 Total number of variables. KZVAR :        1917

@ Singlet linear response function in a.u.

@ A operator, symmetry, frequency:   XDIPLEN    1 -0.000000
@ B operator, symmetry, frequency:   XDIPLEN    1  0.000000

@ Value of linear response -<<A;B>>(omega):      29.511149237212

@ Singlet linear response function in a.u.

@ A operator, symmetry, frequency:   YDIPLEN    1 -0.000000
@ B operator, symmetry, frequency:   XDIPLEN    1  0.000000

@ Value of linear response -<<A;B>>(omega):      -0.000050711465

@ Singlet linear response function in a.u.

@ A operator, symmetry, frequency:   ZDIPLEN    1 -0.000000
@ B operator, symmetry, frequency:   XDIPLEN    1  0.000000

@ Value of linear response -<<A;B>>(omega):      -0.000045583459

@ Singlet linear response function in a.u.

@ A operator, symmetry, frequency:   XDIPLEN    1 -0.016470
@ B operator, symmetry, frequency:   XDIPLEN    1  0.016470

@ Value of linear response -<<A;B>>(omega):      29.558011143758

[...]
@ B-freq = 0.049411  C-freq = 0.049411     beta(Y;Z,Y) =     -6.23929310
@ B-freq = 0.049411  C-freq = 0.049411     beta(Z;Z,Y) =      0.00439160
@ B-freq = 0.065882  C-freq = 0.049411     beta(X;Z,Y) =      0.00634600
@ B-freq = 0.065882  C-freq = 0.049411     beta(Y;Z,Y) =     -6.99231235
@ B-freq = 0.065882  C-freq = 0.049411     beta(Z;Z,Y) =      0.00519578
@ B-freq = 0.000000  C-freq = 0.065882     beta(X;X,Y) = beta(X,Y,X)
@ B-freq = 0.000000  C-freq = 0.065882     beta(Y;X,Y) = beta(Y,Y,X)
@ B-freq = 0.000000  C-freq = 0.065882     beta(Z;X,Y) = beta(Z,Y,X)
@ B-freq = 0.016470  C-freq = 0.065882     beta(X;X,Y) = beta(X,Y,X)
@ B-freq = 0.016470  C-freq = 0.065882     beta(Y;X,Y) = beta(Y,Y,X)
@ B-freq = 0.016470  C-freq = 0.065882     beta(Z;X,Y) = beta(Z,Y,X)
@ B-freq = 0.032941  C-freq = 0.065882     beta(X;X,Y) = beta(X,Y,X)
@ B-freq = 0.032941  C-freq = 0.065882     beta(Y;X,Y) = beta(Y,Y,X)
@ B-freq = 0.032941  C-freq = 0.065882     beta(Z;X,Y) = beta(Z,Y,X)
@ B-freq = 0.049411  C-freq = 0.065882     beta(X;X,Y) = beta(X,Y,X)
@ B-freq = 0.049411  C-freq = 0.065882     beta(Y;X,Y) = beta(Y,Y,X)
@ B-freq = 0.049411  C-freq = 0.065882     beta(Z;X,Y) = beta(Z,Y,X)
@ B-freq = 0.065882  C-freq = 0.065882     beta(X;X,Y) = beta(X,Y,X)
@ B-freq = 0.065882  C-freq = 0.065882     beta(Y;X,Y) = beta(Y,Y,X)
@ B-freq = 0.065882  C-freq = 0.065882     beta(Z;X,Y) = beta(Z,Y,X)
@ B-freq = 0.000000  C-freq = 0.065882     beta(X;Y,Y) = beta(X,Y,Y)
@ B-freq = 0.000000  C-freq = 0.065882     beta(Y;Y,Y) = beta(Y,Y,Y)
@ B-freq = 0.000000  C-freq = 0.065882     beta(Z;Y,Y) = beta(Z,Y,Y)
@ B-freq = 0.016470  C-freq = 0.065882     beta(X;Y,Y) = beta(X,Y,Y)
@ B-freq = 0.016470  C-freq = 0.065882     beta(Y;Y,Y) = beta(Y,Y,Y)
@ B-freq = 0.016470  C-freq = 0.065882     beta(Z;Y,Y) = beta(Z,Y,Y)
@ B-freq = 0.032941  C-freq = 0.065882     beta(X;Y,Y) = beta(X,Y,Y)
@ B-freq = 0.032941  C-freq = 0.065882     beta(Y;Y,Y) = beta(Y,Y,Y)
@ B-freq = 0.032941  C-freq = 0.065882     beta(Z;Y,Y) = beta(Z,Y,Y)
@ B-freq = 0.049411  C-freq = 0.065882     beta(X;Y,Y) = beta(X,Y,Y)
@ B-freq = 0.049411  C-freq = 0.065882     beta(Y;Y,Y) = beta(Y,Y,Y)
@ B-freq = 0.049411  C-freq = 0.065882     beta(Z;Y,Y) = beta(Z,Y,Y)
@ B-freq = 0.065882  C-freq = 0.065882     beta(X;Y,Y) =     -0.00391814
@ B-freq = 0.065882  C-freq = 0.065882     beta(Y;Y,Y) =     17.78411838
@ B-freq = 0.065882  C-freq = 0.065882     beta(Z;Y,Y) =     -8.81962709
@ B-freq = 0.000000  C-freq = 0.065882     beta(X;Z,Y) =      0.00650474
@ B-freq = 0.000000  C-freq = 0.065882     beta(Y;Z,Y) =     -5.51492000
@ B-freq = 0.000000  C-freq = 0.065882     beta(Z;Z,Y) =      0.00387273
@ B-freq = 0.016470  C-freq = 0.065882     beta(X;Z,Y) =      0.00660254
@ B-freq = 0.016470  C-freq = 0.065882     beta(Y;Z,Y) =     -5.75802649
@ B-freq = 0.016470  C-freq = 0.065882     beta(Z;Z,Y) =      0.00417923
@ B-freq = 0.032941  C-freq = 0.065882     beta(X;Z,Y) =      0.00678443
@ B-freq = 0.032941  C-freq = 0.065882     beta(Y;Z,Y) =     -6.17058699
@ B-freq = 0.032941  C-freq = 0.065882     beta(Z;Z,Y) =      0.00465888
@ B-freq = 0.049411  C-freq = 0.065882     beta(X;Z,Y) =      0.00706501
@ B-freq = 0.049411  C-freq = 0.065882     beta(Y;Z,Y) =     -6.80748350
@ B-freq = 0.049411  C-freq = 0.065882     beta(Z;Z,Y) =      0.00537665
@ B-freq = 0.065882  C-freq = 0.065882     beta(X;Z,Y) =      0.00746860
@ B-freq = 0.065882  C-freq = 0.065882     beta(Y;Z,Y) =     -7.76239842
@ B-freq = 0.065882  C-freq = 0.065882     beta(Z;Z,Y) =      0.00644328
@ B-freq = 0.000000  C-freq = 0.000000     beta(X;X,Z) = beta(Z,X,X)
@ B-freq = 0.000000  C-freq = 0.000000     beta(Y;X,Z) = beta(Z,Y,X)
@ B-freq = 0.000000  C-freq = 0.000000     beta(Z;X,Z) = beta(Z,Z,X)
@ B-freq = 0.016470  C-freq = 0.000000     beta(X;X,Z) = beta(X,Z,X)
@ B-freq = 0.016470  C-freq = 0.000000     beta(Y;X,Z) = beta(Y,Z,X)
@ B-freq = 0.016470  C-freq = 0.000000     beta(Z;X,Z) = beta(Z,Z,X)
@ B-freq = 0.032941  C-freq = 0.000000     beta(X;X,Z) = beta(X,Z,X)
@ B-freq = 0.032941  C-freq = 0.000000     beta(Y;X,Z) = beta(Y,Z,X)
@ B-freq = 0.032941  C-freq = 0.000000     beta(Z;X,Z) = beta(Z,Z,X)
@ B-freq = 0.049411  C-freq = 0.000000     beta(X;X,Z) = beta(X,Z,X)
@ B-freq = 0.049411  C-freq = 0.000000     beta(Y;X,Z) = beta(Y,Z,X)
@ B-freq = 0.049411  C-freq = 0.000000     beta(Z;X,Z) = beta(Z,Z,X)
@ B-freq = 0.065882  C-freq = 0.000000     beta(X;X,Z) = beta(X,Z,X)
@ B-freq = 0.065882  C-freq = 0.000000     beta(Y;X,Z) = beta(Y,Z,X)
@ B-freq = 0.065882  C-freq = 0.000000     beta(Z;X,Z) = beta(Z,Z,X)
@ B-freq = 0.000000  C-freq = 0.000000     beta(X;Y,Z) = beta(Z,Y,X)
@ B-freq = 0.000000  C-freq = 0.000000     beta(Y;Y,Z) = beta(Z,Y,Y)
@ B-freq = 0.000000  C-freq = 0.000000     beta(Z;Y,Z) = beta(Z,Z,Y)
@ B-freq = 0.016470  C-freq = 0.000000     beta(X;Y,Z) = beta(X,Z,Y)
@ B-freq = 0.016470  C-freq = 0.000000     beta(Y;Y,Z) = beta(Y,Z,Y)
@ B-freq = 0.016470  C-freq = 0.000000     beta(Z;Y,Z) = beta(Z,Z,Y)
@ B-freq = 0.032941  C-freq = 0.000000     beta(X;Y,Z) = beta(X,Z,Y)
@ B-freq = 0.032941  C-freq = 0.000000     beta(Y;Y,Z) = beta(Y,Z,Y)
@ B-freq = 0.032941  C-freq = 0.000000     beta(Z;Y,Z) = beta(Z,Z,Y)
@ B-freq = 0.049411  C-freq = 0.000000     beta(X;Y,Z) = beta(X,Z,Y)
@ B-freq = 0.049411  C-freq = 0.000000     beta(Y;Y,Z) = beta(Y,Z,Y)
@ B-freq = 0.049411  C-freq = 0.000000     beta(Z;Y,Z) = beta(Z,Z,Y)
@ B-freq = 0.065882  C-freq = 0.000000     beta(X;Y,Z) = beta(X,Z,Y)
@ B-freq = 0.065882  C-freq = 0.000000     beta(Y;Y,Z) = beta(Y,Z,Y)
@ B-freq = 0.065882  C-freq = 0.000000     beta(Z;Y,Z) = beta(Z,Z,Y)
@ B-freq = 0.000000  C-freq = 0.000000     beta(X;Z,Z) = beta(Z,Z,X)
@ B-freq = 0.000000  C-freq = 0.000000     beta(Y;Z,Z) = beta(Z,Z,Y)
@ B-freq = 0.000000  C-freq = 0.000000     beta(X;Z,Z) =      0.00574535
@ B-freq = 0.000000  C-freq = 0.000000     beta(Y;Z,Z) =      0.00261296
@ B-freq = 0.000000  C-freq = 0.000000     beta(Z;Z,Z) =    -29.64689844
@ B-freq = 0.016470  C-freq = 0.000000     beta(X;Z,Z) =      0.00581654
@ B-freq = 0.016470  C-freq = 0.000000     beta(Y;Z,Z) =      0.00268058
@ B-freq = 0.016470  C-freq = 0.000000     beta(Z;Z,Z) =    -29.82343225
@ B-freq = 0.032941  C-freq = 0.000000     beta(X;Z,Z) =      0.00603567
@ B-freq = 0.032941  C-freq = 0.000000     beta(Y;Z,Z) =      0.00289143
@ B-freq = 0.032941  C-freq = 0.000000     beta(Z;Z,Z) =    -30.36268505
@ B-freq = 0.049411  C-freq = 0.000000     beta(X;Z,Z) =      0.00642024
@ B-freq = 0.049411  C-freq = 0.000000     beta(Y;Z,Z) =      0.00327133
@ B-freq = 0.049411  C-freq = 0.000000     beta(Z;Z,Z) =    -31.29481313
@ B-freq = 0.065882  C-freq = 0.000000     beta(X;Z,Z) =      0.00700237
@ B-freq = 0.065882  C-freq = 0.000000     beta(Y;Z,Z) =      0.00387000
@ B-freq = 0.065882  C-freq = 0.000000     beta(Z;Z,Z) =    -32.67435416
@ B-freq = 0.000000  C-freq = 0.016470     beta(X;X,Z) = beta(X,Z,X)
@ B-freq = 0.000000  C-freq = 0.016470     beta(Y;X,Z) = beta(Y,Z,X)
@ B-freq = 0.000000  C-freq = 0.016470     beta(Z;X,Z) = beta(Z,Z,X)
@ B-freq = 0.016470  C-freq = 0.016470     beta(X;X,Z) = beta(X,Z,X)
@ B-freq = 0.016470  C-freq = 0.016470     beta(Y;X,Z) = beta(Y,Z,X)
@ B-freq = 0.016470  C-freq = 0.016470     beta(Z;X,Z) = beta(Z,Z,X)
@ B-freq = 0.032941  C-freq = 0.016470     beta(X;X,Z) = beta(X,Z,X)
@ B-freq = 0.032941  C-freq = 0.016470     beta(Y;X,Z) = beta(Y,Z,X)
@ B-freq = 0.032941  C-freq = 0.016470     beta(Z;X,Z) = beta(Z,Z,X)
@ B-freq = 0.049411  C-freq = 0.016470     beta(X;X,Z) = beta(X,Z,X)
@ B-freq = 0.049411  C-freq = 0.016470     beta(Y;X,Z) = beta(Y,Z,X)
@ B-freq = 0.049411  C-freq = 0.016470     beta(Z;X,Z) = beta(Z,Z,X)
@ B-freq = 0.065882  C-freq = 0.016470     beta(X;X,Z) = beta(X,Z,X)
@ B-freq = 0.065882  C-freq = 0.016470     beta(Y;X,Z) = beta(Y,Z,X)
@ B-freq = 0.065882  C-freq = 0.016470     beta(Z;X,Z) = beta(Z,Z,X)
@ B-freq = 0.000000  C-freq = 0.016470     beta(X;Y,Z) = beta(X,Z,Y)
@ B-freq = 0.000000  C-freq = 0.016470     beta(Y;Y,Z) = beta(Y,Z,Y)
@ B-freq = 0.000000  C-freq = 0.016470     beta(Z;Y,Z) = beta(Z,Z,Y)
@ B-freq = 0.016470  C-freq = 0.016470     beta(X;Y,Z) = beta(X,Z,Y)
@ B-freq = 0.016470  C-freq = 0.016470     beta(Y;Y,Z) = beta(Y,Z,Y)
@ B-freq = 0.016470  C-freq = 0.016470     beta(Z;Y,Z) = beta(Z,Z,Y)
@ B-freq = 0.032941  C-freq = 0.016470     beta(X;Y,Z) = beta(X,Z,Y)
@ B-freq = 0.032941  C-freq = 0.016470     beta(Y;Y,Z) = beta(Y,Z,Y)
@ B-freq = 0.032941  C-freq = 0.016470     beta(Z;Y,Z) = beta(Z,Z,Y)
@ B-freq = 0.049411  C-freq = 0.016470     beta(X;Y,Z) = beta(X,Z,Y)
@ B-freq = 0.049411  C-freq = 0.016470     beta(Y;Y,Z) = beta(Y,Z,Y)
@ B-freq = 0.049411  C-freq = 0.016470     beta(Z;Y,Z) = beta(Z,Z,Y)
@ B-freq = 0.065882  C-freq = 0.016470     beta(X;Y,Z) = beta(X,Z,Y)
@ B-freq = 0.065882  C-freq = 0.016470     beta(Y;Y,Z) = beta(Y,Z,Y)
@ B-freq = 0.065882  C-freq = 0.016470     beta(Z;Y,Z) = beta(Z,Z,Y)
@ B-freq = 0.000000  C-freq = 0.016470     beta(X;Z,Z) = beta(X,Z,Z)
@ B-freq = 0.000000  C-freq = 0.016470     beta(Y;Z,Z) = beta(Y,Z,Z)
@ B-freq = 0.000000  C-freq = 0.016470     beta(Z;Z,Z) = beta(Z,Z,Z)
@ B-freq = 0.016470  C-freq = 0.016470     beta(X;Z,Z) =      0.00591158
@ B-freq = 0.016470  C-freq = 0.016470     beta(Y;Z,Z) =      0.00284322
@ B-freq = 0.016470  C-freq = 0.016470     beta(Z;Z,Z) =    -30.18130867
@ B-freq = 0.032941  C-freq = 0.016470     beta(X;Z,Z) =      0.00616132
@ B-freq = 0.032941  C-freq = 0.016470     beta(Y;Z,Z) =      0.00316834
@ B-freq = 0.032941  C-freq = 0.016470     beta(Z;Z,Z) =    -30.91685693
@ B-freq = 0.049411  C-freq = 0.016470     beta(X;Z,Z) =      0.00658866
@ B-freq = 0.049411  C-freq = 0.016470     beta(Y;Z,Z) =      0.00369924
@ B-freq = 0.049411  C-freq = 0.016470     beta(Z;Z,Z) =    -32.07217500
@ B-freq = 0.065882  C-freq = 0.016470     beta(X;Z,Z) =      0.00723363
@ B-freq = 0.065882  C-freq = 0.016470     beta(Y;Z,Z) =      0.00451223
@ B-freq = 0.065882  C-freq = 0.016470     beta(Z;Z,Z) =    -33.71725205
@ B-freq = 0.000000  C-freq = 0.032941     beta(X;X,Z) = beta(X,Z,X)
@ B-freq = 0.000000  C-freq = 0.032941     beta(Y;X,Z) = beta(Y,Z,X)
@ B-freq = 0.000000  C-freq = 0.032941     beta(Z;X,Z) = beta(Z,Z,X)
@ B-freq = 0.016470  C-freq = 0.032941     beta(X;X,Z) = beta(X,Z,X)
@ B-freq = 0.016470  C-freq = 0.032941     beta(Y;X,Z) = beta(Y,Z,X)
@ B-freq = 0.016470  C-freq = 0.032941     beta(Z;X,Z) = beta(Z,Z,X)
@ B-freq = 0.032941  C-freq = 0.032941     beta(X;X,Z) = beta(X,Z,X)
@ B-freq = 0.032941  C-freq = 0.032941     beta(Y;X,Z) = beta(Y,Z,X)
@ B-freq = 0.032941  C-freq = 0.032941     beta(Z;X,Z) = beta(Z,Z,X)
@ B-freq = 0.049411  C-freq = 0.032941     beta(X;X,Z) = beta(X,Z,X)
@ B-freq = 0.049411  C-freq = 0.032941     beta(Y;X,Z) = beta(Y,Z,X)
@ B-freq = 0.049411  C-freq = 0.032941     beta(Z;X,Z) = beta(Z,Z,X)
@ B-freq = 0.065882  C-freq = 0.032941     beta(X;X,Z) = beta(X,Z,X)
@ B-freq = 0.065882  C-freq = 0.032941     beta(Y;X,Z) = beta(Y,Z,X)
@ B-freq = 0.065882  C-freq = 0.032941     beta(Z;X,Z) = beta(Z,Z,X)
@ B-freq = 0.000000  C-freq = 0.032941     beta(X;Y,Z) = beta(X,Z,Y)
@ B-freq = 0.000000  C-freq = 0.032941     beta(Y;Y,Z) = beta(Y,Z,Y)
@ B-freq = 0.000000  C-freq = 0.032941     beta(Z;Y,Z) = beta(Z,Z,Y)
@ B-freq = 0.016470  C-freq = 0.032941     beta(X;Y,Z) = beta(X,Z,Y)
@ B-freq = 0.016470  C-freq = 0.032941     beta(Y;Y,Z) = beta(Y,Z,Y)
@ B-freq = 0.016470  C-freq = 0.032941     beta(Z;Y,Z) = beta(Z,Z,Y)
@ B-freq = 0.032941  C-freq = 0.032941     beta(X;Y,Z) = beta(X,Z,Y)
@ B-freq = 0.032941  C-freq = 0.032941     beta(Y;Y,Z) = beta(Y,Z,Y)
@ B-freq = 0.032941  C-freq = 0.032941     beta(Z;Y,Z) = beta(Z,Z,Y)
@ B-freq = 0.049411  C-freq = 0.032941     beta(X;Y,Z) = beta(X,Z,Y)
@ B-freq = 0.049411  C-freq = 0.032941     beta(Y;Y,Z) = beta(Y,Z,Y)
@ B-freq = 0.049411  C-freq = 0.032941     beta(Z;Y,Z) = beta(Z,Z,Y)
@ B-freq = 0.065882  C-freq = 0.032941     beta(X;Y,Z) = beta(X,Z,Y)
@ B-freq = 0.065882  C-freq = 0.032941     beta(Y;Y,Z) = beta(Y,Z,Y)
@ B-freq = 0.065882  C-freq = 0.032941     beta(Z;Y,Z) = beta(Z,Z,Y)
@ B-freq = 0.000000  C-freq = 0.032941     beta(X;Z,Z) = beta(X,Z,Z)
@ B-freq = 0.000000  C-freq = 0.032941     beta(Y;Z,Z) = beta(Y,Z,Z)
@ B-freq = 0.000000  C-freq = 0.032941     beta(Z;Z,Z) = beta(Z,Z,Z)
@ B-freq = 0.016470  C-freq = 0.032941     beta(X;Z,Z) = beta(X,Z,Z)
@ B-freq = 0.016470  C-freq = 0.032941     beta(Y;Z,Z) = beta(Y,Z,Z)
@ B-freq = 0.016470  C-freq = 0.032941     beta(Z;Z,Z) = beta(Z,Z,Z)
@ B-freq = 0.032941  C-freq = 0.032941     beta(X;Z,Z) =      0.00645511
@ B-freq = 0.032941  C-freq = 0.032941     beta(Y;Z,Z) =      0.00364436
@ B-freq = 0.032941  C-freq = 0.032941     beta(Z;Z,Z) =    -31.87522348
@ B-freq = 0.049411  C-freq = 0.032941     beta(X;Z,Z) =      0.00694756
@ B-freq = 0.049411  C-freq = 0.032941     beta(Y;Z,Z) =      0.00438847
@ B-freq = 0.049411  C-freq = 0.032941     beta(Z;Z,Z) =    -33.29465670
@ B-freq = 0.065882  C-freq = 0.032941     beta(X;Z,Z) =      0.00769066
@ B-freq = 0.065882  C-freq = 0.032941     beta(Y;Z,Z) =      0.00551901
@ B-freq = 0.065882  C-freq = 0.032941     beta(Z;Z,Z) =    -35.26544617
@ B-freq = 0.000000  C-freq = 0.049411     beta(X;X,Z) = beta(X,Z,X)
@ B-freq = 0.000000  C-freq = 0.049411     beta(Y;X,Z) = beta(Y,Z,X)
@ B-freq = 0.000000  C-freq = 0.049411     beta(Z;X,Z) = beta(Z,Z,X)
@ B-freq = 0.016470  C-freq = 0.049411     beta(X;X,Z) = beta(X,Z,X)
@ B-freq = 0.016470  C-freq = 0.049411     beta(Y;X,Z) = beta(Y,Z,X)
@ B-freq = 0.016470  C-freq = 0.049411     beta(Z;X,Z) = beta(Z,Z,X)
@ B-freq = 0.032941  C-freq = 0.049411     beta(X;X,Z) = beta(X,Z,X)
@ B-freq = 0.032941  C-freq = 0.049411     beta(Y;X,Z) = beta(Y,Z,X)
@ B-freq = 0.032941  C-freq = 0.049411     beta(Z;X,Z) = beta(Z,Z,X)
@ B-freq = 0.049411  C-freq = 0.049411     beta(X;X,Z) = beta(X,Z,X)
@ B-freq = 0.049411  C-freq = 0.049411     beta(Y;X,Z) = beta(Y,Z,X)
@ B-freq = 0.049411  C-freq = 0.049411     beta(Z;X,Z) = beta(Z,Z,X)
@ B-freq = 0.065882  C-freq = 0.049411     beta(X;X,Z) = beta(X,Z,X)
@ B-freq = 0.065882  C-freq = 0.049411     beta(Y;X,Z) = beta(Y,Z,X)
@ B-freq = 0.065882  C-freq = 0.049411     beta(Z;X,Z) = beta(Z,Z,X)
@ B-freq = 0.000000  C-freq = 0.049411     beta(X;Y,Z) = beta(X,Z,Y)
@ B-freq = 0.000000  C-freq = 0.049411     beta(Y;Y,Z) = beta(Y,Z,Y)
@ B-freq = 0.000000  C-freq = 0.049411     beta(Z;Y,Z) = beta(Z,Z,Y)
@ B-freq = 0.016470  C-freq = 0.049411     beta(X;Y,Z) = beta(X,Z,Y)
@ B-freq = 0.016470  C-freq = 0.049411     beta(Y;Y,Z) = beta(Y,Z,Y)
@ B-freq = 0.016470  C-freq = 0.049411     beta(Z;Y,Z) = beta(Z,Z,Y)
@ B-freq = 0.032941  C-freq = 0.049411     beta(X;Y,Z) = beta(X,Z,Y)
@ B-freq = 0.032941  C-freq = 0.049411     beta(Y;Y,Z) = beta(Y,Z,Y)
@ B-freq = 0.032941  C-freq = 0.049411     beta(Z;Y,Z) = beta(Z,Z,Y)
@ B-freq = 0.049411  C-freq = 0.049411     beta(X;Y,Z) = beta(X,Z,Y)
@ B-freq = 0.049411  C-freq = 0.049411     beta(Y;Y,Z) = beta(Y,Z,Y)
@ B-freq = 0.049411  C-freq = 0.049411     beta(Z;Y,Z) = beta(Z,Z,Y)
@ B-freq = 0.065882  C-freq = 0.049411     beta(X;Y,Z) = beta(X,Z,Y)
@ B-freq = 0.065882  C-freq = 0.049411     beta(Y;Y,Z) = beta(Y,Z,Y)
@ B-freq = 0.065882  C-freq = 0.049411     beta(Z;Y,Z) = beta(Z,Z,Y)
@ B-freq = 0.000000  C-freq = 0.049411     beta(X;Z,Z) = beta(X,Z,Z)
@ B-freq = 0.000000  C-freq = 0.049411     beta(Y;Z,Z) = beta(Y,Z,Z)
@ B-freq = 0.000000  C-freq = 0.049411     beta(Z;Z,Z) = beta(Z,Z,Z)
@ B-freq = 0.016470  C-freq = 0.049411     beta(X;Z,Z) = beta(X,Z,Z)
@ B-freq = 0.016470  C-freq = 0.049411     beta(Y;Z,Z) = beta(Y,Z,Z)
@ B-freq = 0.016470  C-freq = 0.049411     beta(Z;Z,Z) = beta(Z,Z,Z)
@ B-freq = 0.032941  C-freq = 0.049411     beta(X;Z,Z) = beta(X,Z,Z)
@ B-freq = 0.032941  C-freq = 0.049411     beta(Y;Z,Z) = beta(Y,Z,Z)
@ B-freq = 0.032941  C-freq = 0.049411     beta(Z;Z,Z) = beta(Z,Z,Z)
@ B-freq = 0.049411  C-freq = 0.049411     beta(X;Z,Z) =      0.00753894
@ B-freq = 0.049411  C-freq = 0.049411     beta(Y;Z,Z) =      0.00544877
@ B-freq = 0.049411  C-freq = 0.049411     beta(Z;Z,Z) =    -35.03855889
@ B-freq = 0.065882  C-freq = 0.049411     beta(X;Z,Z) =      0.00843367
@ B-freq = 0.065882  C-freq = 0.049411     beta(Y;Z,Z) =      0.00706879
@ B-freq = 0.065882  C-freq = 0.049411     beta(Z;Z,Z) =    -37.42222424
@ B-freq = 0.000000  C-freq = 0.065882     beta(X;X,Z) = beta(X,Z,X)
@ B-freq = 0.000000  C-freq = 0.065882     beta(Y;X,Z) = beta(Y,Z,X)
@ B-freq = 0.000000  C-freq = 0.065882     beta(Z;X,Z) = beta(Z,Z,X)
@ B-freq = 0.016470  C-freq = 0.065882     beta(X;X,Z) = beta(X,Z,X)
@ B-freq = 0.016470  C-freq = 0.065882     beta(Y;X,Z) = beta(Y,Z,X)
@ B-freq = 0.016470  C-freq = 0.065882     beta(Z;X,Z) = beta(Z,Z,X)
@ B-freq = 0.032941  C-freq = 0.065882     beta(X;X,Z) = beta(X,Z,X)
@ B-freq = 0.032941  C-freq = 0.065882     beta(Y;X,Z) = beta(Y,Z,X)
@ B-freq = 0.032941  C-freq = 0.065882     beta(Z;X,Z) = beta(Z,Z,X)
@ B-freq = 0.049411  C-freq = 0.065882     beta(X;X,Z) = beta(X,Z,X)
@ B-freq = 0.049411  C-freq = 0.065882     beta(Y;X,Z) = beta(Y,Z,X)
@ B-freq = 0.049411  C-freq = 0.065882     beta(Z;X,Z) = beta(Z,Z,X)
@ B-freq = 0.065882  C-freq = 0.065882     beta(X;X,Z) = beta(X,Z,X)
@ B-freq = 0.065882  C-freq = 0.065882     beta(Y;X,Z) = beta(Y,Z,X)
@ B-freq = 0.065882  C-freq = 0.065882     beta(Z;X,Z) = beta(Z,Z,X)
@ B-freq = 0.000000  C-freq = 0.065882     beta(X;Y,Z) = beta(X,Z,Y)
@ B-freq = 0.000000  C-freq = 0.065882     beta(Y;Y,Z) = beta(Y,Z,Y)
@ B-freq = 0.000000  C-freq = 0.065882     beta(Z;Y,Z) = beta(Z,Z,Y)
@ B-freq = 0.016470  C-freq = 0.065882     beta(X;Y,Z) = beta(X,Z,Y)
@ B-freq = 0.016470  C-freq = 0.065882     beta(Y;Y,Z) = beta(Y,Z,Y)
@ B-freq = 0.016470  C-freq = 0.065882     beta(Z;Y,Z) = beta(Z,Z,Y)
@ B-freq = 0.032941  C-freq = 0.065882     beta(X;Y,Z) = beta(X,Z,Y)
@ B-freq = 0.032941  C-freq = 0.065882     beta(Y;Y,Z) = beta(Y,Z,Y)
@ B-freq = 0.032941  C-freq = 0.065882     beta(Z;Y,Z) = beta(Z,Z,Y)
@ B-freq = 0.049411  C-freq = 0.065882     beta(X;Y,Z) = beta(X,Z,Y)
@ B-freq = 0.049411  C-freq = 0.065882     beta(Y;Y,Z) = beta(Y,Z,Y)
@ B-freq = 0.049411  C-freq = 0.065882     beta(Z;Y,Z) = beta(Z,Z,Y)
@ B-freq = 0.065882  C-freq = 0.065882     beta(X;Y,Z) = beta(X,Z,Y)
@ B-freq = 0.065882  C-freq = 0.065882     beta(Y;Y,Z) = beta(Y,Z,Y)
@ B-freq = 0.065882  C-freq = 0.065882     beta(Z;Y,Z) = beta(Z,Z,Y)
@ B-freq = 0.000000  C-freq = 0.065882     beta(X;Z,Z) = beta(X,Z,Z)
@ B-freq = 0.000000  C-freq = 0.065882     beta(Y;Z,Z) = beta(Y,Z,Z)
@ B-freq = 0.000000  C-freq = 0.065882     beta(Z;Z,Z) = beta(Z,Z,Z)
@ B-freq = 0.016470  C-freq = 0.065882     beta(X;Z,Z) = beta(X,Z,Z)
@ B-freq = 0.016470  C-freq = 0.065882     beta(Y;Z,Z) = beta(Y,Z,Z)
@ B-freq = 0.016470  C-freq = 0.065882     beta(Z;Z,Z) = beta(Z,Z,Z)
@ B-freq = 0.032941  C-freq = 0.065882     beta(X;Z,Z) = beta(X,Z,Z)
@ B-freq = 0.032941  C-freq = 0.065882     beta(Y;Z,Z) = beta(Y,Z,Z)
@ B-freq = 0.032941  C-freq = 0.065882     beta(Z;Z,Z) = beta(Z,Z,Z)
@ B-freq = 0.049411  C-freq = 0.065882     beta(X;Z,Z) = beta(X,Z,Z)
@ B-freq = 0.049411  C-freq = 0.065882     beta(Y;Z,Z) = beta(Y,Z,Z)
@ B-freq = 0.049411  C-freq = 0.065882     beta(Z;Z,Z) = beta(Z,Z,Z)
@ B-freq = 0.065882  C-freq = 0.065882     beta(X;Z,Z) =      0.00956473
@ B-freq = 0.065882  C-freq = 0.065882     beta(Y;Z,Z) =      0.00947422
@ B-freq = 0.065882  C-freq = 0.065882     beta(Z;Z,Z) =    -40.34666636

  Total CPU  time used in RESPONSE: 35 minutes 38 seconds
  Total wall time used in RESPONSE: 35 minutes 44 seconds


                   .-------------------------------------------.
                   | End of Dynamic Property Section (RESPONS) |
                   `-------------------------------------------'

  Total CPU  time used in DALTON: 37 minutes  1 second 
  Total wall time used in DALTON: 37 minutes  8 seconds

 
     Date and time (Linux)  : Fri Sep 29 07:06:09 2023
     Host name              : sn-mem                                  
