

     ************************************************************************
     *************** Dalton - An Electronic Structure Program ***************
     ************************************************************************

    This is output from DALTON release Dalton2020.0 (2020)
         ( Web site: http://daltonprogram.org )

   ----------------------------------------------------------------------------

    NOTE:
     
    Dalton is an experimental code for the evaluation of molecular
    properties using (MC)SCF, DFT, CI, and CC wave functions.
    The authors accept no responsibility for the performance of
    the code or for the correctness of the results.
     
    The code (in whole or part) is provided under a licence and
    is not to be reproduced for further distribution without
    the written permission of the authors or their representatives.
     
    See the home page "http://daltonprogram.org" for further information.
     
    If results obtained with this code are published,
    the appropriate citations would be both of:
     
       K. Aidas, C. Angeli, K. L. Bak, V. Bakken, R. Bast,
       L. Boman, O. Christiansen, R. Cimiraglia, S. Coriani,
       P. Dahle, E. K. Dalskov, U. Ekstroem,
       T. Enevoldsen, J. J. Eriksen, P. Ettenhuber, B. Fernandez,
       L. Ferrighi, H. Fliegl, L. Frediani, K. Hald, A. Halkier,
       C. Haettig, H. Heiberg, T. Helgaker, A. C. Hennum,
       H. Hettema, E. Hjertenaes, S. Hoest, I.-M. Hoeyvik,
       M. F. Iozzi, B. Jansik, H. J. Aa. Jensen, D. Jonsson,
       P. Joergensen, J. Kauczor, S. Kirpekar,
       T. Kjaergaard, W. Klopper, S. Knecht, R. Kobayashi, H. Koch,
       J. Kongsted, A. Krapp, K. Kristensen, A. Ligabue,
       O. B. Lutnaes, J. I. Melo, K. V. Mikkelsen, R. H. Myhre,
       C. Neiss, C. B. Nielsen, P. Norman, J. Olsen,
       J. M. H. Olsen, A. Osted, M. J. Packer, F. Pawlowski,
       T. B. Pedersen, P. F. Provasi, S. Reine, Z. Rinkevicius,
       T. A. Ruden, K. Ruud, V. Rybkin, P. Salek, C. C. M. Samson,
       A. Sanchez de Meras, T. Saue, S. P. A. Sauer,
       B. Schimmelpfennig, K. Sneskov, A. H. Steindal,
       K. O. Sylvester-Hvid, P. R. Taylor, A. M. Teale,
       E. I. Tellgren, D. P. Tew, A. J. Thorvaldsen, L. Thoegersen,
       O. Vahtras, M. A. Watson, D. J. D. Wilson, M. Ziolkowski
       and H. Agren,
       "The Dalton quantum chemistry program system",
       WIREs Comput. Mol. Sci. 2014, 4:269–284 (doi: 10.1002/wcms.1172)
     
    and
     
       Dalton, a molecular electronic structure program,
       Release Dalton2020.0 (2020), see http://daltonprogram.org
   ----------------------------------------------------------------------------

    Authors in alphabetical order (Major contribution(s) in parenthesis):

  Kestutis Aidas,           Vilnius University,           Lithuania   (QM/MM)
  Celestino Angeli,         University of Ferrara,        Italy       (NEVPT2)
  Keld L. Bak,              UNI-C,                        Denmark     (AOSOPPA, non-adiabatic coupling, magnetic properties)
  Vebjoern Bakken,          University of Oslo,           Norway      (DALTON; geometry optimizer, symmetry detection)
  Radovan Bast,             UiT The Arctic U. of Norway,  Norway      (DALTON installation and execution frameworks)
  Pablo Baudin,             University of Valencia,       Spain       (Cholesky excitation energies)
  Linus Boman,              NTNU,                         Norway      (Cholesky decomposition and subsystems)
  Bruno N. Cabral Tenorio,  Technical Univ. of Denmark,   Denmark     (Lanczos-based CC methods)
  Ove Christiansen,         Aarhus University,            Denmark     (CC module)
  Renzo Cimiraglia,         University of Ferrara,        Italy       (NEVPT2)
  Sonia Coriani,            Technical Univ. of Denmark,   Denmark     (CC and RESPONS modules)
  Janusz Cukras,            University of Warsaw,         Poland      (MChD in RESPONS)
  Paal Dahle,               University of Oslo,           Norway      (Parallelization)
  Erik K. Dalskov,          UNI-C,                        Denmark     (SOPPA)
  Thomas Enevoldsen,        Univ. of Southern Denmark,    Denmark     (SOPPA)
  Janus J. Eriksen,         Aarhus University,            Denmark     (Polarizable embedding, TDA)
  Rasmus Faber,             Technical Univ. of Denmark,   Denmark     (Vib.avg. NMR w. SOPPA, parallel AO-SOPPA, CVS-CC and EOMCC)
  Tobias Fahleson,          KTH Stockholm,                Sweden      (Damped cubic response)
  Berta Fernandez,          U. of Santiago de Compostela, Spain       (Doublet spin, ESR in RESPONS)
  Lara Ferrighi,            Aarhus University,            Denmark     (PCM Cubic response)
  Heike Fliegl,             University of Oslo,           Norway      (CCSD(R12))
  Luca Frediani,            UiT The Arctic U. of Norway,  Norway      (PCM)
  Emmanuel Fromager,        Univ. Strasbourg,             France      (MC-srDFT)
  Bin Gao,                  UiT The Arctic U. of Norway,  Norway      (Gen1Int library)
  Andre S. P. Gomes,        CNRS/Universite de Lille,     France      (Frozen density embedding)
  Christof Haettig,         Ruhr-University Bochum,       Germany     (CC module)
  Kasper Hald,              Aarhus University,            Denmark     (CC module)
  Asger Halkier,            Aarhus University,            Denmark     (CC module)
  Frederik Beyer Hansen,    University of Copenhagen,     Denmark     (Parallel AO-SOPPA)
  Erik D. Hedegaard,        Univ. of Southern Denmark,    Denmark     (Polarizable embedding, QM/MM, and MC-srDFT)
  Hanne Heiberg,            University of Oslo,           Norway      (Geometry analysis, selected one-electron integrals)
  Trygve Helgaker,          University of Oslo,           Norway      (DALTON; ABACUS, ERI, DFT modules, London, and much more)
  Alf Christian Hennum,     University of Oslo,           Norway      (Parity violation)
  Hinne Hettema,            University of Auckland,       New Zealand (Quadratic response in RESPONS; SIRIUS supersymmetry)
  Eirik Hjertenaes,         NTNU,                         Norway      (Cholesky decomposition)
  Pi A. B. Haase,           University of Copenhagen,     Denmark     (Triplet AO-SOPPA)
  Maria Francesca Iozzi,    University of Oslo,           Norway      (RPA)
  Christoph Jacob           TU Braunschweig               Germany     (Frozen density embedding)
  Brano Jansik              Technical Univ. of Ostrava    Czech Rep.  (DFT cubic response)
  Hans Joergen Aa. Jensen,  Univ. of Southern Denmark,    Denmark     (DALTON; SIRIUS, RESPONS, ABACUS, MC-srDFT, and much more)
  Dan Jonsson,              UiT The Arctic U. of Norway,  Norway      (Cubic response in RESPONS module)
  Poul Joergensen,          Aarhus University,            Denmark     (RESPONS, ABACUS, and CC modules)
  Maciej Kaminski,          University of Warsaw,         Poland      (CPPh in RESPONS)
  Joanna Kauczor,           Linkoeping University,        Sweden      (Complex polarization propagator (CPP) module)
  Sheela Kirpekar,          Univ. of Southern Denmark,    Denmark     (Mass-velocity & Darwin integrals)
  Erik Kjellgren,           Univ. of Southern Denmark,    Denmark     (MC-srDFT)
  Wim Klopper,              KIT Karlsruhe,                Germany     (R12 code in CC, SIRIUS, and ABACUS modules)
  Stefan Knecht,            ETH Zurich,                   Switzerland (Parallel CI and MCSCF, MC-srDFT)
  Rika Kobayashi,           Australian National Univ.,    Australia   (DIIS in CC, London in MCSCF)
  Henrik Koch,              NTNU,                         Norway      (CC module, Cholesky decomposition)
  Jacob Kongsted,           Univ. of Southern Denmark,    Denmark     (Polarizable embedding, polarizable density embedding, QM/MM)
  Andrea Ligabue,           University of Modena,         Italy       (CTOCD, AOSOPPA)
  Nanna H. List             Univ. of Southern Denmark,    Denmark     (Polarizable embedding)
  Ola B. Lutnaes,           University of Oslo,           Norway      (DFT Hessian)
  Juan I. Melo,             University of Buenos Aires,   Argentina   (LRESC, Relativistic Effects on NMR Shieldings)
  Kurt V. Mikkelsen,        University of Copenhagen,     Denmark     (MC-SCRF and QM/MM)
  Rolf H. Myhre,            NTNU,                         Norway      (Subsystems and CC3)
  Christian Neiss,          Univ. Erlangen-Nuernberg,     Germany     (CCSD(R12))
  Christian B. Nielsen,     University of Copenhagen,     Denmark     (QM/MM)
  Patrick Norman,           KTH Stockholm,                Sweden      (Cubic response and complex frequency response in RESPONS)
  Jeppe Olsen,              Aarhus University,            Denmark     (SIRIUS CI/density modules)
  Jogvan Magnus H. Olsen,   Aarhus University,            Denmark     (Polarizable embedding and polarizable density embedding)
  Anders Osted,             Copenhagen University,        Denmark     (QM/MM)
  Martin J. Packer,         University of Sheffield,      UK          (SOPPA)
  Filip Pawlowski,          Kazimierz Wielki University,  Poland      (CC3)
  Morten N. Pedersen,       Univ. of Southern Denmark,    Denmark     (Polarizable embedding)
  Thomas B. Pedersen,       University of Oslo,           Norway      (Cholesky decomposition)
  Patricio F. Provasi,      University of Northeastern,   Argentina   (Analysis of coupling constants in localized orbitals)
  Peter Reinholdt,          Univ. of Southern Denmark,    Denmark     (Polarizable embedding and polarizable density embedding)
  Zilvinas Rinkevicius,     KTH Stockholm,                Sweden      (open-shell DFT, ESR)
  Elias Rudberg,            KTH Stockholm,                Sweden      (DFT grid and basis info)
  Torgeir A. Ruden,         University of Oslo,           Norway      (Numerical derivatives in ABACUS)
  Kenneth Ruud,             UiT The Arctic U. of Norway,  Norway      (DALTON; ABACUS magnetic properties and much more)
  Pawel Salek,              KTH Stockholm,                Sweden      (DALTON; DFT code)
  Claire C. M. Samson       University of Karlsruhe       Germany     (Boys localization, r12 integrals in ERI)
  Alfredo Sanchez de Meras, University of Valencia,       Spain       (CC module, Cholesky decomposition)
  Trond Saue,               Paul Sabatier University,     France      (direct Fock matrix construction)
  Stephan P. A. Sauer,      University of Copenhagen,     Denmark     (SOPPA(CCSD), SOPPA prop., AOSOPPA, vibrational g-factors)
  Bernd Schimmelpfennig,    Forschungszentrum Karlsruhe,  Germany     (AMFI module)
  Anna K. Schnack-Petersen, University of Copenhagen,     Denmark     (RPA(D) and HRPA(D) properties in AOSOPPA)
  Kristian Sneskov,         Aarhus University,            Denmark     (Polarizable embedding, QM/MM)
  Arnfinn H. Steindal,      UiT The Arctic U. of Norway,  Norway      (parallel QM/MM, polarizable embedding)
  Casper Steinmann,         Aalborg University,           Denmark     (QFIT, polarizable embedding)
  K. O. Sylvester-Hvid,     University of Copenhagen,     Denmark     (MC-SCRF)
  Peter R. Taylor,          VLSCI/Univ. of Melbourne,     Australia   (Symmetry handling ABACUS, integral transformation)
  Andrew M. Teale,          University of Nottingham,     England     (DFT-AC, DFT-D)
  David P. Tew,             University of Bristol,        England     (CCSD(R12))
  Julien Toulouse,          Sorbonne Univ.,               France      (MC-srDFT)
  Olav Vahtras,             KTH Stockholm,                Sweden      (Triplet response, spin-orbit, ESR, TDDFT, open-shell DFT)
  Lucas Visscher,           Vrije Universiteit Amsterdam, Netherlands (Frozen density embedding)
  David J. Wilson,          La Trobe University,          Australia   (DFT Hessian and DFT magnetizabilities)
  Hans Agren,               KTH Stockholm,                Sweden      (SIRIUS module, RESPONS, MC-SCRF solvation)
 --------------------------------------------------------------------------------

     Date and time (Linux)  : Wed Sep 13 22:32:52 2023
     Host name              : sn-mem                                  

 * Work memory size             :    64000000 =  488.28 megabytes.

 * Directories for basis set searches:
   1) /gpfs/projects/rjh/adrian/august_no_symmetry/dalton/hf/NOCl/dipole
   2) /gpfs/projects/rjh/adrian/dalton/build/basis


Compilation information
-----------------------

 Who compiled             | ahurtado
 Host                     | sn-mem
 System                   | Linux-3.10.0-1160.24.1.el7.x86_64
 CMake generator          | Unix Makefiles
 Processor                | x86_64
 64-bit integers          | OFF
 MPI                      | ON
 Fortran compiler         | /gpfs/software/intel/oneAPI/2021_4/mpi/2021.4.0/bi
                          | n/mpif90
 Fortran compiler version | GNU Fortran (GCC) 11.2.0
 C compiler               | /gpfs/software/intel/oneAPI/2021_4/mpi/2021.4.0/bi
                          | n/mpicc
 C compiler version       | gcc (GCC) 11.2.0
 C++ compiler             | /gpfs/software/intel/oneAPI/2021_4/mpi/2021.4.0/bi
                          | n/mpicxx
 C++ compiler version     | unknown
 BLAS                     | /gpfs/software/intel/oneAPI/2021_4/mkl/2021.4.0/li
                          | b/intel64/libmkl_gf_lp64.so;/gpfs/software/intel/o
                          | neAPI/2021_4/mkl/2021.4.0/lib/intel64/libmkl_seque
                          | ntial.so;/gpfs/software/intel/oneAPI/2021_4/mkl/20
                          | 21.4.0/lib/intel64/libmkl_core.so;/usr/lib64/libpt
                          | hread.so;/usr/lib64/libm.so
 LAPACK                   | /gpfs/software/intel/oneAPI/2021_4/mkl/2021.4.0/li
                          | b/intel64/libmkl_lapack95_lp64.a;/gpfs/software/in
                          | tel/oneAPI/2021_4/mkl/2021.4.0/lib/intel64/libmkl_
                          | gf_lp64.so
 Static linking           | OFF
 Last Git revision        | 66052b3af5ea7225e31178bf9a8b031913c72190
 Git branch               | (HEAD detached at Dalton2020.0)
 Configuration time       | 2023-01-11 13:33:37.731835

 * MPI parallel run using 5 processes.


   Content of the .dal input file
 ----------------------------------

**DALTON INPUT
.RUN RESPONSE
.DIRECT
**WAVE FUNCTIONS
.HF
**PROPERTIES
**RESPONSE
*QUADRA
.DIPLEN
.FREQUENCIES
5
0.0 0.0063445625 0.012689125 0.0190336875 0.02537825
**END OF DALTON INPUT


   Content of the .mol file
 ----------------------------

BASIS
aug-cc-pCVQZ
blah
blah
Atomtype=3 Angstrom Charge=0 Nosymmmetry
Charge=17 Atoms=1
Cl_a -0.531200001141 -0.929799999232 0.000000000000
Charge=7 Atoms=1
N_a 0.000000000000 0.972399997674 0.000000000000
Charge=8 Atoms=1
O_a 1.128700001162 1.124999999397 0.000000000000


       *******************************************************************
       *********** Output from DALTON general input processing ***********
       *******************************************************************

 --------------------------------------------------------------------------------
   Overall default print level:    0
   Print level for DALTON.STAT:    1

    Parallel calculation using MPI
    AO-direct calculation (in sections where implemented)
    HERMIT 1- and 2-electron integral sections will be executed
    "Old" integral transformation used (limited to max 255 basis functions)
    Wave function sections will be executed (SIRIUS module)
    Dynamic molecular response properties section will be executed (RESPONSE module)
 --------------------------------------------------------------------------------


   ****************************************************************************
   *************** Output of molecule and basis set information ***************
   ****************************************************************************


    The two title cards from your ".mol" input:
    ------------------------------------------------------------------------
 1: blah                                                                    
 2: blah                                                                    
    ------------------------------------------------------------------------

  Coordinates are entered in Angstrom and converted to atomic units.
          - Conversion factor : 1 bohr = 0.52917721 A

  Atomic type no.    1
  --------------------
  Nuclear charge:  17.00000
  Number of symmetry independent centers:    1
  Number of basis sets to read;    2
  Basis set file used for this atomic type with Z =  17 :
     "/gpfs/projects/rjh/adrian/dalton/build/basis/aug-cc-pCVQZ"

  Atomic type no.    2
  --------------------
  Nuclear charge:   7.00000
  Number of symmetry independent centers:    1
  Number of basis sets to read;    2
  Basis set file used for this atomic type with Z =   7 :
     "/gpfs/projects/rjh/adrian/dalton/build/basis/aug-cc-pCVQZ"

  Atomic type no.    3
  --------------------
  Nuclear charge:   8.00000
  Number of symmetry independent centers:    1
  Number of basis sets to read;    2
  Basis set file used for this atomic type with Z =   8 :
     "/gpfs/projects/rjh/adrian/dalton/build/basis/aug-cc-pCVQZ"


                         SYMGRP: Point group information
                         -------------------------------

@    Point group: C1 


                                 Isotopic Masses
                                 ---------------

                           Cl_a       34.968853
                           N_a        14.003074
                           O_a        15.994915

                       Total mass:    64.966842 amu
                       Natural abundance:  75.308 %

 Center-of-mass coordinates (a.u.):   -0.015184   -0.026271    0.000000
 Center-of-mass coordinates (Angs):   -0.008035   -0.013902    0.000000


  Atoms and basis sets
  --------------------

  Number of atom types :    3
  Total number of atoms:    3

  Basis set used is "aug-cc-pCVQZ" from the basis set library.

  label    atoms   charge   prim   cont     basis
  ----------------------------------------------------------------------
  Cl          1   17.0000   162   134      [20s15p7d5f3g|10s9p7d5f3g]                         
  N_          1    7.0000   122   109      [16s10p6d4f2g|9s8p6d4f2g]                          
  O_          1    8.0000   122   109      [16s10p6d4f2g|9s8p6d4f2g]                          
  ----------------------------------------------------------------------
  total:      3   32.0000   406   352
  ----------------------------------------------------------------------
  Spherical harmonic basis used.

  Threshold for neglecting AO integrals:  1.00D-12


  Cartesian Coordinates (a.u.)
  ----------------------------

  Total number of coordinates:    9
  Cl_a    :     1  x  -1.0038225198    2  y  -1.7570673496    3  z   0.0000000000
  N_a     :     4  x   0.0000000000    5  y   1.8375696795    6  z   0.0000000000
  O_a     :     7  x   2.1329338795    8  y   2.1259418895    9  z   0.0000000000


   Interatomic separations (in Angstrom):
   --------------------------------------

            Cl_a        N_a         O_a   
            ------      ------      ------
 Cl_a  :    0.000000
 N_a   :    1.974978    0.000000
 O_a   :    2.641490    1.138969    0.000000


  Max    interatomic separation is    2.6415 Angstrom (    4.9917 Bohr)
  between atoms    3 and    1, "O_a   " and "Cl_a  ".

  Min YX interatomic separation is    1.1390 Angstrom (    2.1523 Bohr)


  Bond distances (Angstrom):
  --------------------------

                  atom 1     atom 2       distance
                  ------     ------       --------
  bond distance:  N_a        Cl_a         1.974978
  bond distance:  O_a        N_a          1.138969


  Bond angles (degrees):
  ----------------------

                  atom 1     atom 2     atom 3         angle
                  ------     ------     ------         -----
  bond angle:     Cl_a       N_a        O_a          113.302




 Principal moments of inertia (u*A**2) and principal axes
 --------------------------------------------------------

   IA       5.840433          0.544616    0.838686    0.000000
   IB      88.102929          0.838686   -0.544616    0.000000
   IC      93.943362          0.000000    0.000000    1.000000


 Rotational constants
 --------------------

@    The molecule is planar.

               A                   B                   C

          86531.0810           5736.2339           5379.6138 MHz
            2.886366            0.191340            0.179445 cm-1


@  Nuclear repulsion energy :   85.148419784453 Hartree


                     .---------------------------------------.
                     | Starting in Integral Section (HERMIT) |
                     `---------------------------------------'



 ***************************************************************************************
 ****************** Output from **INTEGRALS input processing (HERMIT) ******************
 ***************************************************************************************


 - Using defaults, no **INTEGRALS input found

 Default print level:        1

 Calculation of one-electron Hamiltonian integrals.

 Center of mass  (bohr):     -0.015183530523     -0.026271029737      0.000000000000
 Operator center (bohr):      0.000000000000      0.000000000000      0.000000000000
 Gauge origin    (bohr):      0.000000000000      0.000000000000      0.000000000000
 Dipole origin   (bohr):      0.000000000000      0.000000000000      0.000000000000


     ************************************************************************
     ************************** Output from HERINT **************************
     ************************************************************************



                      Nuclear contribution to dipole moments
                      --------------------------------------

                 au               Debye          C m (/(10**-30)

      x     -0.00151180        -0.00384261        -0.01281757
      y      0.00037793         0.00096060         0.00320422
      z      0.00000000         0.00000000         0.00000000


  Time used in ONEDRV     is       0.16 seconds
  Time used in GABGEN     is       3.06 seconds
  Total CPU  time used in HERMIT:   3.71 seconds
  Total wall time used in HERMIT:   3.73 seconds


                        .----------------------------------.
                        | End of Integral Section (HERMIT) |
                        `----------------------------------'



                   .--------------------------------------------.
                   | Starting in Wave Function Section (SIRIUS) |
                   `--------------------------------------------'


 *** Output from Huckel module :

     Using EWMO model:          T
     Using EHT  model:          F
     Number of Huckel orbitals each symmetry:   24

 EWMO - Energy Weighted Maximum Overlap - is a Huckel type method,
        which normally is better than Extended Huckel Theory.
 Reference: Linderberg and Ohrn, Propagators in Quantum Chemistry (Wiley, 1973)

 Huckel EWMO eigenvalues for symmetry :  1
         -104.883930     -20.685569     -15.673202     -10.608489      -8.072407
           -8.072214      -8.072213      -1.708026      -1.175229      -0.898477
           -0.756044      -0.739435      -0.598849      -0.506247      -0.484719
           -0.442076      -0.370251      -0.309233      -0.187242      -0.055540
           -0.055527      -0.054317      -0.054072      -0.050572

 **********************************************************************
 *SIRIUS* a direct, restricted step, second order MCSCF program       *
 **********************************************************************

 
     Date and time (Linux)  : Wed Sep 13 22:32:58 2023
     Host name              : sn-mem                                  

 Title lines from ".mol" input file:
     blah                                                                    
     blah                                                                    

 Print level on unit LUPRI =   2 is   0
 Print level on unit LUW4  =   2 is   5

@    Restricted, closed shell Hartree-Fock calculation.

@    Time-dependent Hartree-Fock calculation (random phase approximation).
 Fock matrices are calculated directly and in parallel without use of integrals on disk.

 Initial molecular orbitals are obtained according to
 ".MOSTART EWMO  " input option

     Wave function specification
     ============================
@    Wave function type        --- HF ---
@    Number of closed shell electrons          32
@    Number of electrons in active shells       0
@    Total charge of the molecule               0

@    Spin multiplicity and 2 M_S                1         0
@    Total number of symmetries                 1 (point group: C1 )
@    Reference state symmetry                   1 (irrep name : A  )

     Orbital specifications
     ======================
@    Abelian symmetry species          All |    1
@                                          |  A  
                                       --- |  ---
@    Occupied SCF orbitals              16 |   16
@    Secondary orbitals                336 |  336
@    Total number of orbitals          352 |  352
@    Number of basis functions         352 |  352

     Optimization information
     ========================
@    Number of configurations                 1
@    Number of orbital rotations           5376
     ------------------------------------------
@    Total number of variables             5377

     Maximum number of Fock   iterations      0
     Maximum number of DIIS   iterations     60
     Maximum number of QC-SCF iterations     60
     Threshold for SCF convergence     1.00D-05

    INFORMATION: Switched to "new" integral transformation (from 1988 ;-) )
    because more than 255 basis functions.


 ***********************************************
 ***** DIIS acceleration of SCF iterations *****
 ***********************************************

 C1-DIIS algorithm; max error vectors =    8

 Iter      Total energy        Error norm    Delta(E)  DIIS dim.
 -----------------------------------------------------------------------------
   1  Screening settings (-IFTHRS, JTDIIS, DIFDEN, times)   -9    1    T  4.07D+01  4.08D+01
@  1    -588.368940846        4.59982D+00   -5.88D+02    1
      Virial theorem: -V/T =      2.000514
@    MULPOP   Cl_a   -0.13; N_a     0.90; O_a    -0.78; 
   1  Level shift: doubly occupied orbital energies shifted by -2.00D-01
 -----------------------------------------------------------------------------
   2  Screening settings (-IFTHRS, JTDIIS, DIFDEN, times)   -9    2    T  4.05D+01  4.06D+01
@  2    -588.714046475        1.15709D+00   -3.45D-01    2
      Virial theorem: -V/T =      2.000162
@    MULPOP   Cl_a    0.01; N_a    -0.01; O_a     0.00; 
   2  Level shift: doubly occupied orbital energies shifted by -1.00D-01
 -----------------------------------------------------------------------------
   3  Screening settings (-IFTHRS, JTDIIS, DIFDEN, times)   -9    3    T  4.03D+01  4.04D+01
@  3    -588.764610350        5.76657D-01   -5.06D-02    3
      Virial theorem: -V/T =      2.000089
@    MULPOP   Cl_a   -0.17; N_a     0.47; O_a    -0.30; 
   3  Level shift: doubly occupied orbital energies shifted by -5.00D-02
 -----------------------------------------------------------------------------
   4  Screening settings (-IFTHRS, JTDIIS, DIFDEN, times)   -9    4    T  4.03D+01  4.04D+01
@  4    -588.779965882        1.14958D-01   -1.54D-02    4
      Virial theorem: -V/T =      2.000702
@    MULPOP   Cl_a   -0.16; N_a     0.31; O_a    -0.16; 
   4  Level shift: doubly occupied orbital energies shifted by -1.25D-02
 -----------------------------------------------------------------------------
   5  Screening settings (-IFTHRS, JTDIIS, DIFDEN, times)  -13    5    F  4.16D+01  4.18D+01
@  5    -588.781261014        4.72761D-02   -1.30D-03    5
      Virial theorem: -V/T =      2.000497
@    MULPOP   Cl_a   -0.16; N_a     0.33; O_a    -0.18; 
 -----------------------------------------------------------------------------
   6  Screening settings (-IFTHRS, JTDIIS, DIFDEN, times)  -13    6    T  4.11D+01  4.13D+01
@  6    -588.781534257        1.76023D-02   -2.73D-04    6
      Virial theorem: -V/T =      2.000502
@    MULPOP   Cl_a   -0.17; N_a     0.34; O_a    -0.17; 
 -----------------------------------------------------------------------------
   7  Screening settings (-IFTHRS, JTDIIS, DIFDEN, times)  -13    7    T  4.11D+01  4.12D+01
@  7    -588.781597832        7.11471D-03   -6.36D-05    7
      Virial theorem: -V/T =      2.000532
@    MULPOP   Cl_a   -0.17; N_a     0.34; O_a    -0.17; 
 -----------------------------------------------------------------------------
   8  Screening settings (-IFTHRS, JTDIIS, DIFDEN, times)  -13    8    T  4.08D+01  4.09D+01
@  8    -588.781611494        2.91954D-03   -1.37D-05    8
      Virial theorem: -V/T =      2.000517
@    MULPOP   Cl_a   -0.17; N_a     0.34; O_a    -0.17; 
 -----------------------------------------------------------------------------
   9  Screening settings (-IFTHRS, JTDIIS, DIFDEN, times)  -13    9    T  4.07D+01  4.08D+01
@  9    -588.781613848        1.15559D-03   -2.35D-06    8
      Virial theorem: -V/T =      2.000517
@    MULPOP   Cl_a   -0.17; N_a     0.34; O_a    -0.17; 
 -----------------------------------------------------------------------------
  10  Screening settings (-IFTHRS, JTDIIS, DIFDEN, times)  -13   10    T  4.11D+01  4.13D+01
@ 10    -588.781614225        3.79174D-04   -3.78D-07    8
      Virial theorem: -V/T =      2.000517
@    MULPOP   Cl_a   -0.17; N_a     0.34; O_a    -0.17; 
 -----------------------------------------------------------------------------
  11  Screening settings (-IFTHRS, JTDIIS, DIFDEN, times)  -13   11    T  4.08D+01  4.08D+01
@ 11    -588.781614269        1.59695D-04   -4.36D-08    8
      Virial theorem: -V/T =      2.000517
@    MULPOP   Cl_a   -0.17; N_a     0.34; O_a    -0.17; 
 -----------------------------------------------------------------------------
  12  Screening settings (-IFTHRS, JTDIIS, DIFDEN, times)  -13   12    T  4.06D+01  4.08D+01
@ 12    -588.781614276        5.38316D-05   -6.89D-09    8
      Virial theorem: -V/T =      2.000517
@    MULPOP   Cl_a   -0.17; N_a     0.34; O_a    -0.17; 
 -----------------------------------------------------------------------------
  13  Screening settings (-IFTHRS, JTDIIS, DIFDEN, times)  -13   13    T  3.97D+01  3.99D+01
@ 13    -588.781614276        2.79429D-05   -2.97D-10    8
      Virial theorem: -V/T =      2.000517
@    MULPOP   Cl_a   -0.17; N_a     0.34; O_a    -0.17; 
 -----------------------------------------------------------------------------
  14  Screening settings (-IFTHRS, JTDIIS, DIFDEN, times)  -13   14    T  4.02D+01  4.03D+01
@ 14    -588.781614276        7.40926D-06   -7.82D-11    8

@ *** DIIS converged in  14 iterations !
@     Converged SCF energy, gradient:   -588.781614276163    7.41D-06
    - total time used in SIRFCK :              0.00 seconds


 *** SCF orbital energy analysis ***

 Only the 20 lowest virtual orbital energies printed in each symmetry.

 Number of electrons :   32
 Orbital occupations :   16

 Sym       Hartree-Fock orbital energies

1 A    -104.83482254   -20.75521249   -15.85305836   -10.55895400    -8.02525885
         -8.02399629    -8.02394598    -1.68162840    -1.10512619    -0.96861904
         -0.77208853    -0.76367390    -0.72571548    -0.45904282    -0.45867899
         -0.43127554     0.03194092     0.04447916     0.06477804     0.08207670
          0.09171189     0.09750354     0.11985371     0.12589169     0.13313667
          0.15667608     0.16008915     0.18460634     0.22666840     0.26163867
          0.28997626     0.29356685     0.32478175     0.34829674     0.36388403
          0.37535287

    E(LUMO) :     0.03194092 au (symmetry 1)
  - E(HOMO) :    -0.43127554 au (symmetry 1)
  ------------------------------------------
    gap     :     0.46321646 au

 --- Writing SIRIFC interface file

 CPU and wall time for SCF :     574.416     576.541


                       .-----------------------------------.
                       | --- Final results from SIRIUS --- |
                       `-----------------------------------'


@    Spin multiplicity:           1
@    Spatial symmetry:            1 ( irrep  A   in C1  )
@    Total charge of molecule:    0

@    Final HF energy:            -588.781614276163                 
@    Nuclear repulsion:            85.148419784453
@    Electronic energy:          -673.930034060616

@    Final gradient norm:           0.000007409263

 
     Date and time (Linux)  : Wed Sep 13 22:42:35 2023
     Host name              : sn-mem                                  

File label for MO orbitals:  13Sep23   FOCKDIIS

 (Only coefficients > 0.0100 are printed.)

 Molecular orbitals for symmetry species 1  (A  )
 ------------------------------------------------

    Orbital         7        8        9       10       11       12       13
   3 Cl_a:1s    -0.0001  -0.0332  -0.7967   0.4766  -0.1530   0.2774   0.0000
   6 Cl_a:1s     0.0000   0.0019   0.0080   0.0168  -0.0302   0.0494  -0.0000
  10 Cl_a:1s     0.0000  -0.0012   0.0058  -0.0007  -0.0368   0.0176   0.0000
  11 Cl_a:2px    0.9667   0.0016   0.0028   0.0009  -0.0027   0.0021   0.0000
  12 Cl_a:2py   -0.2487   0.0029   0.0095   0.0040  -0.0037   0.0110  -0.0000
  14 Cl_a:2px   -0.0102  -0.0049  -0.0140  -0.0114   0.0931  -0.0258   0.0000
  15 Cl_a:2py    0.0033  -0.0121  -0.0584  -0.0736   0.0997  -0.2173  -0.0000
  16 Cl_a:2pz   -0.0000  -0.0000  -0.0000  -0.0000   0.0000   0.0000   0.0911
  18 Cl_a:2py   -0.0011  -0.0033  -0.0085  -0.0052   0.0037  -0.0120  -0.0000
  23 Cl_a:2px    0.0022   0.0010   0.0003   0.0026  -0.0119   0.0007   0.0000
  24 Cl_a:2py   -0.0007   0.0010   0.0099   0.0117  -0.0269   0.0329   0.0000
  25 Cl_a:2pz    0.0000   0.0000  -0.0000  -0.0000  -0.0000   0.0000  -0.0136
  62 Cl_a:3d2+  -0.0001   0.0016   0.0073   0.0052  -0.0024   0.0129  -0.0000
  67 Cl_a:3d2+   0.0001   0.0015   0.0059   0.0049  -0.0026   0.0118  -0.0000
 136 N_a :1s     0.0000  -0.5606  -0.3469  -0.6202  -0.1144  -0.3047  -0.0000
 138 N_a :1s     0.0002   0.1040  -0.0147   0.0089  -0.0169  -0.0613   0.0000
 139 N_a :1s    -0.0003   0.1390  -0.0057   0.0179  -0.0227  -0.1205  -0.0000
 143 N_a :1s    -0.0001   0.0048  -0.0159   0.0083   0.0447  -0.0260  -0.0000
 144 N_a :2px    0.0000  -0.2914   0.1506   0.0384   0.2805   0.6384   0.0000
 145 N_a :2py   -0.0000  -0.0307   0.1380  -0.0841  -0.4474   0.1504  -0.0000
 146 N_a :2pz   -0.0000   0.0000   0.0000  -0.0000  -0.0000  -0.0000   0.5548
 150 N_a :2px    0.0001   0.0469  -0.0185  -0.0028  -0.0178  -0.0494  -0.0000
 151 N_a :2py    0.0000   0.0103   0.0039   0.0066   0.0199  -0.0006   0.0000
 152 N_a :2pz    0.0000  -0.0000   0.0000   0.0000   0.0000   0.0000  -0.0156
 153 N_a :2px   -0.0005   0.0563  -0.0300  -0.0170  -0.0379  -0.0649   0.0000
 154 N_a :2py   -0.0002   0.0047  -0.0103   0.0076   0.0649  -0.0104   0.0000
 155 N_a :2pz   -0.0000   0.0000   0.0000   0.0000  -0.0000  -0.0000  -0.0703
 183 N_a :3d2-   0.0000  -0.0039   0.0012  -0.0021  -0.0218   0.0077   0.0000
 185 N_a :3d0   -0.0000   0.0113   0.0012   0.0012  -0.0055  -0.0105   0.0000
 186 N_a :3d1+   0.0000  -0.0000   0.0000   0.0000   0.0000   0.0000   0.0278
 187 N_a :3d2+   0.0000  -0.0202   0.0073  -0.0048   0.0087   0.0205   0.0000
 188 N_a :3d2-   0.0000  -0.0046   0.0001   0.0001  -0.0124   0.0094   0.0000
 190 N_a :3d0    0.0000   0.0129   0.0054   0.0029  -0.0072  -0.0086  -0.0000
 191 N_a :3d1+   0.0000   0.0000   0.0000   0.0000  -0.0000   0.0000   0.0261
 192 N_a :3d2+   0.0000  -0.0208   0.0132  -0.0064   0.0026   0.0244   0.0000
 193 N_a :3d2-   0.0001  -0.0010  -0.0038   0.0012   0.0180  -0.0065  -0.0000
 197 N_a :3d2+  -0.0000  -0.0048   0.0031  -0.0075  -0.0041   0.0135   0.0000
 245 O_a :1s     0.0000  -0.7555   0.3038   0.5163  -0.0454  -0.1270   0.0000
 247 O_a :1s    -0.0001   0.0739   0.0038   0.0378  -0.0143  -0.0545  -0.0000
 248 O_a :1s     0.0003   0.0609   0.0335   0.0994  -0.0233  -0.0769   0.0000
 252 O_a :1s     0.0001  -0.0135   0.0110   0.0024  -0.0139   0.0070   0.0000
 253 O_a :2px   -0.0000   0.2437   0.0871   0.4488  -0.0576  -0.5850  -0.0000
 254 O_a :2py    0.0000   0.0337   0.0713   0.0084  -0.7352   0.1033  -0.0000
 255 O_a :2pz   -0.0000   0.0000  -0.0000  -0.0000  -0.0000  -0.0000   0.6846
 259 O_a :2px    0.0000  -0.0151  -0.0082  -0.0268   0.0069   0.0286   0.0000
 262 O_a :2px   -0.0000  -0.0117  -0.0193  -0.0473   0.0041   0.0190  -0.0000
 263 O_a :2py    0.0002  -0.0023  -0.0115  -0.0013   0.0052  -0.0014  -0.0000
 292 O_a :3d2-   0.0000  -0.0041  -0.0027  -0.0011   0.0181   0.0006  -0.0000
 295 O_a :3d1+   0.0000  -0.0000  -0.0000  -0.0000  -0.0000  -0.0000  -0.0212
 296 O_a :3d2+  -0.0000  -0.0131  -0.0005  -0.0103  -0.0012   0.0130  -0.0000
 297 O_a :3d2-  -0.0000  -0.0062  -0.0007  -0.0005   0.0259   0.0029   0.0000
 299 O_a :3d0   -0.0000   0.0140  -0.0005   0.0045  -0.0031  -0.0092  -0.0000
 300 O_a :3d1+   0.0000   0.0000   0.0000   0.0000  -0.0000   0.0000  -0.0323
 301 O_a :3d2+  -0.0000  -0.0230   0.0010  -0.0122  -0.0017   0.0166   0.0000
 302 O_a :3d2-  -0.0001  -0.0026   0.0004  -0.0015   0.0174   0.0018  -0.0000
 305 O_a :3d1+  -0.0000   0.0000   0.0000   0.0000  -0.0000  -0.0000  -0.0202
 306 O_a :3d2+   0.0000  -0.0098  -0.0007  -0.0059  -0.0000   0.0109   0.0000

    Orbital        14       15       16       17       18       19       20
   2 Cl_a:1s     0.0000   0.0005  -0.0019   0.0000  -0.0048   0.0124  -0.0051
   3 Cl_a:1s     0.0000   0.0118  -0.0267   0.0000   0.1317   0.1413   0.0246
   4 Cl_a:1s     0.0000   0.0009  -0.0042  -0.0000   0.0053  -0.0002  -0.0251
   5 Cl_a:1s     0.0000   0.0024   0.0006  -0.0000  -0.0501   0.0719   0.3127
   6 Cl_a:1s    -0.0000   0.0016  -0.0285   0.0000   0.3990  -0.2998  -1.2117
  10 Cl_a:1s    -0.0000   0.0044  -0.0120   0.0000   2.9920  -1.7250  -6.0670
  12 Cl_a:2py    0.0000   0.0027  -0.0083   0.0000   0.0295  -0.0172  -0.0716
  14 Cl_a:2px   -0.0000  -0.9687   0.0257   0.0000   0.1176   0.0889  -0.0295
  15 Cl_a:2py    0.0000   0.1519   0.7065   0.0000   0.4758   0.0863   0.0290
  16 Cl_a:2pz    0.9677  -0.0000  -0.0000   0.1890  -0.0000  -0.0000  -0.0000
  17 Cl_a:2px   -0.0000   0.0093   0.0038   0.0000  -0.0137  -0.0005   0.0213
  18 Cl_a:2py    0.0000  -0.0030   0.0057  -0.0000  -0.0658   0.0438   0.1737
  20 Cl_a:2px    0.0000   0.0027   0.0051   0.0000   0.0063   0.0099  -0.0311
  21 Cl_a:2py   -0.0000  -0.0036   0.0139  -0.0000   0.0312  -0.0081  -0.0736
  23 Cl_a:2px   -0.0000  -0.0188  -0.0068   0.0000   0.3008  -0.3705  -0.5995
  24 Cl_a:2py   -0.0000   0.0022   0.0138   0.0000   0.8572  -0.6582  -1.5817
  25 Cl_a:2pz    0.0194  -0.0000   0.0000   0.0544   0.0000   0.0000   0.0000
  35 Cl_a:2px   -0.0000  -0.0099   0.0008   0.0000   0.3147   0.0863  -0.1475
  36 Cl_a:2py    0.0000   0.0024   0.0093   0.0000   1.1891  -0.0508  -1.9323
  37 Cl_a:2pz    0.0092  -0.0000  -0.0000   0.1677  -0.0000  -0.0000  -0.0000
  54 Cl_a:3d1-   0.0023   0.0000   0.0000  -0.0109  -0.0000   0.0000   0.0000
  57 Cl_a:3d2+   0.0000   0.0006  -0.0051  -0.0000   0.0132   0.0070   0.0086
  58 Cl_a:3d2-   0.0000  -0.0042   0.0095  -0.0000  -0.0236   0.0008   0.0079
  59 Cl_a:3d1-   0.0049   0.0000   0.0000  -0.0237  -0.0000   0.0000   0.0000
  60 Cl_a:3d0    0.0000   0.0015  -0.0063  -0.0000   0.0250  -0.0056  -0.0026
  62 Cl_a:3d2+   0.0000   0.0010  -0.0105  -0.0000   0.0353  -0.0016   0.0073
  63 Cl_a:3d2-   0.0000  -0.0073   0.0125  -0.0000   0.0302  -0.0730  -0.1873
  64 Cl_a:3d1-   0.0104   0.0000   0.0000  -0.0297  -0.0000   0.0000   0.0000
  65 Cl_a:3d0    0.0000   0.0028  -0.0087  -0.0000  -0.0343   0.0768   0.1620
  67 Cl_a:3d2+   0.0000   0.0001  -0.0141  -0.0000  -0.0324   0.0944   0.1939
  68 Cl_a:3d2-   0.0000  -0.0035   0.0018  -0.0000   0.1373  -0.2014  -0.1991
  69 Cl_a:3d1-   0.0033   0.0000   0.0000  -0.0142  -0.0000   0.0000   0.0000
  70 Cl_a:3d0    0.0000   0.0018  -0.0034  -0.0000  -0.1193   0.1073   0.2636
  72 Cl_a:3d2+   0.0000   0.0000  -0.0057  -0.0000  -0.1803   0.0910   0.5065
  96 Cl_a:4f1-   0.0000   0.0004  -0.0024  -0.0000   0.0034   0.0054   0.0153
 100 Cl_a:4f3+   0.0000   0.0034  -0.0039  -0.0000   0.0049   0.0049   0.0169
 101 Cl_a:4f3-   0.0000  -0.0011  -0.0012  -0.0000  -0.0260   0.0031   0.0663
 103 Cl_a:4f1-  -0.0000   0.0009  -0.0027  -0.0000  -0.0356   0.0317   0.0649
 105 Cl_a:4f1+  -0.0000   0.0001  -0.0012   0.0000  -0.0091   0.0125   0.0146
 107 Cl_a:4f3+  -0.0000   0.0011  -0.0024   0.0000  -0.0391   0.0371   0.0794
 126 Cl_a:5g4-  -0.0000  -0.0000  -0.0006  -0.0000  -0.0042   0.0059   0.0174
 135 N_a :1s     0.0000   0.0008  -0.0038   0.0000  -0.0076   0.0134   0.0039
 136 N_a :1s     0.0000  -0.0023  -0.2359   0.0000  -0.2281   0.0216  -0.0440
 137 N_a :1s    -0.0000   0.0011  -0.0089  -0.0000  -0.0175   0.0704  -0.0134
 138 N_a :1s     0.0000  -0.0079  -0.0154   0.0000   0.1987  -0.6976  -0.0695
 139 N_a :1s     0.0000  -0.0265  -0.0801   0.0000  -0.1032  -3.3580   3.0296
 143 N_a :1s     0.0000  -0.0212  -0.0331  -0.0000  -2.4261  -4.9981  10.7022
 144 N_a :2px    0.0000   0.0292   0.2319   0.0000   0.0634  -0.0325   0.0048
 145 N_a :2py    0.0000   0.0137  -0.3521   0.0000   0.5265   0.2736   0.3581
 146 N_a :2pz   -0.0026  -0.0000   0.0000  -0.7020   0.0000   0.0000   0.0000
 150 N_a :2px    0.0000  -0.0098  -0.0064   0.0000   0.0865  -0.5662   0.2154
 151 N_a :2py    0.0000   0.0009  -0.0155   0.0000   0.0334  -0.0691   0.0822
 152 N_a :2pz    0.0051  -0.0000   0.0000  -0.0366   0.0000   0.0000   0.0000
 153 N_a :2px    0.0000  -0.0171  -0.0092   0.0000   0.2607  -2.0067   0.8333
 154 N_a :2py    0.0000   0.0044  -0.0746   0.0000   0.8793  -0.7860  -1.0294
 155 N_a :2pz    0.0154  -0.0000   0.0000  -0.3223   0.0000   0.0000   0.0000
 165 N_a :2px    0.0000  -0.0016   0.0015   0.0000   0.1974  -1.6714   0.4033
 166 N_a :2py    0.0000   0.0060  -0.0221   0.0000   1.7124  -1.1150  -3.0722
 167 N_a :2pz    0.0031  -0.0000   0.0000  -0.6173   0.0000   0.0000   0.0000
 183 N_a :3d2-   0.0000  -0.0011   0.0142   0.0000   0.0032  -0.0104   0.0050
 185 N_a :3d0   -0.0000  -0.0004  -0.0091  -0.0000  -0.0094   0.0253  -0.0008
 187 N_a :3d2+   0.0000   0.0072  -0.0065   0.0000   0.0068  -0.0375   0.0269
 188 N_a :3d2-   0.0000   0.0004   0.0234   0.0000   0.0004  -0.0471   0.1376
 189 N_a :3d1-  -0.0146  -0.0000   0.0000   0.0042  -0.0000   0.0000  -0.0000
 190 N_a :3d0   -0.0000   0.0016  -0.0155  -0.0000   0.0129   0.0967  -0.1522
 192 N_a :3d2+   0.0000   0.0125  -0.0200   0.0000   0.0541  -0.2525  -0.0417
 193 N_a :3d2-   0.0000   0.0003   0.0012   0.0000   0.0285  -0.1611   0.3256
 195 N_a :3d0   -0.0000   0.0027  -0.0074  -0.0000   0.1210   0.0281  -0.4773
 196 N_a :3d1+  -0.0011  -0.0000   0.0000  -0.0474   0.0000   0.0000   0.0000
 197 N_a :3d2+   0.0000   0.0048  -0.0180   0.0000   0.1190  -0.4465  -0.3225
 212 N_a :4f3-   0.0000  -0.0044   0.0073   0.0000  -0.0002  -0.0077   0.0166
 216 N_a :4f1+   0.0000  -0.0000   0.0004  -0.0000  -0.0032   0.0216  -0.0083
 218 N_a :4f3+  -0.0000   0.0027   0.0033   0.0000   0.0012  -0.0226   0.0084
 219 N_a :4f3-   0.0000  -0.0058   0.0059   0.0000  -0.0059  -0.0095   0.0920
 221 N_a :4f1-  -0.0000  -0.0002   0.0014  -0.0000  -0.0204   0.0317   0.0494
 223 N_a :4f1+  -0.0000   0.0005   0.0008  -0.0000   0.0001   0.0206  -0.0170
 225 N_a :4f3+   0.0000   0.0030   0.0021   0.0000  -0.0220  -0.0180   0.0305
 245 O_a :1s    -0.0000   0.0349   0.0256  -0.0000  -0.0166   0.0713  -0.0216
 246 O_a :1s    -0.0000  -0.0001   0.0007   0.0000   0.0023  -0.0203   0.0064
 247 O_a :1s    -0.0000  -0.0004  -0.0053   0.0000  -0.0004   0.0726   0.0024
 248 O_a :1s    -0.0000   0.0157   0.0100  -0.0000  -0.3200   2.7475  -1.4126
 252 O_a :1s    -0.0000   0.0160   0.0136   0.0000  -0.4964   7.3404  -5.2953
 253 O_a :2px    0.0000  -0.0239  -0.1308   0.0000  -0.0291   0.0234  -0.0196
 254 O_a :2py    0.0000  -0.1726   0.4948   0.0000  -0.2836  -0.0964  -0.1170
 255 O_a :2pz   -0.1682   0.0000  -0.0000   0.5743  -0.0000  -0.0000  -0.0000
 256 O_a :2px   -0.0000  -0.0005   0.0002  -0.0000  -0.0075   0.0353  -0.0151
 259 O_a :2px    0.0000  -0.0021   0.0034   0.0000   0.0504  -0.3311   0.1304
 260 O_a :2py    0.0000   0.0013   0.0081   0.0000  -0.0112  -0.0451  -0.0253
 261 O_a :2pz   -0.0028   0.0000  -0.0000   0.0296  -0.0000  -0.0000  -0.0000
 262 O_a :2px    0.0000  -0.0034  -0.0092   0.0000   0.2873  -1.8496   1.0040
 263 O_a :2py   -0.0000  -0.0058   0.0615   0.0000  -0.1899  -0.1806  -0.0171
 264 O_a :2pz   -0.0146   0.0000  -0.0000   0.2560  -0.0000  -0.0000  -0.0000
 274 O_a :2px    0.0000  -0.0020  -0.0062   0.0000   0.2039  -1.8863   1.3539
 275 O_a :2py   -0.0000  -0.0085   0.0296   0.0000  -0.4701  -0.2237   0.5612
 276 O_a :2pz   -0.0072   0.0000  -0.0000   0.5214  -0.0000  -0.0000  -0.0000
 296 O_a :3d2+   0.0000   0.0018   0.0002  -0.0000   0.0005   0.0114  -0.0019
 297 O_a :3d2-  -0.0000   0.0005  -0.0024  -0.0000  -0.0124   0.0400   0.0070
 299 O_a :3d0    0.0000  -0.0003  -0.0012   0.0000   0.0186  -0.1098   0.0533
 301 O_a :3d2+  -0.0000   0.0044  -0.0021  -0.0000  -0.0413   0.2014  -0.0760
 302 O_a :3d2-   0.0000  -0.0010  -0.0082   0.0000   0.0424   0.0822  -0.0432
 304 O_a :3d0    0.0000  -0.0005   0.0012  -0.0000   0.0508  -0.2240   0.1442
 305 O_a :3d1+   0.0037  -0.0000   0.0000  -0.0439   0.0000   0.0000   0.0000
 306 O_a :3d2+   0.0000   0.0000   0.0031   0.0000  -0.0833   0.3418  -0.1213
 325 O_a :4f1+  -0.0000   0.0001   0.0006  -0.0000  -0.0028   0.0175  -0.0079
 327 O_a :4f3+   0.0000  -0.0009   0.0003   0.0000   0.0042  -0.0234   0.0086
 328 O_a :4f3-  -0.0000  -0.0004   0.0015   0.0000  -0.0007  -0.0241  -0.0080
 330 O_a :4f1-   0.0000  -0.0001  -0.0000   0.0000  -0.0003   0.0103  -0.0042
 332 O_a :4f1+  -0.0000   0.0001  -0.0001   0.0000  -0.0104   0.0421  -0.0234
 334 O_a :4f3+   0.0000  -0.0009  -0.0001  -0.0000   0.0163  -0.0454   0.0050

    Orbital        21       22       23       24       25       26
   2 Cl_a:1s     0.0422   0.0000  -0.0035   0.0000   0.0294   0.0000
   3 Cl_a:1s     0.2043   0.0000   0.0160   0.0000   0.1797   0.0000
   4 Cl_a:1s     0.0319  -0.0000  -0.0123  -0.0000   0.0291  -0.0000
   5 Cl_a:1s    -0.2268  -0.0000   0.1452  -0.0000  -0.2666  -0.0000
   6 Cl_a:1s     0.4347   0.0000  -0.5241   0.0000   1.3443   0.0000
   9 Cl_a:1s     0.0156   0.0000  -0.0017   0.0000   0.0103   0.0000
  10 Cl_a:1s     1.5057   0.0000  -2.0052   0.0000  -0.5169   0.0000
  11 Cl_a:2px    0.0386   0.0000  -0.0692  -0.0000   0.0326  -0.0000
  12 Cl_a:2py    0.0140  -0.0000  -0.0044   0.0000   0.0306   0.0000
  13 Cl_a:2pz    0.0000   0.0856  -0.0000   0.0417  -0.0000   0.0068
  14 Cl_a:2px    0.0313  -0.0000  -0.1121  -0.0000   0.1380  -0.0000
  15 Cl_a:2py   -0.0799   0.0000  -0.0235   0.0000   0.3010   0.0000
  16 Cl_a:2pz   -0.0000   0.1536  -0.0000   0.0433  -0.0000   0.0545
  17 Cl_a:2px   -0.0844   0.0000   0.1506   0.0000  -0.0756   0.0000
  18 Cl_a:2py   -0.0358  -0.0000   0.0163  -0.0000  -0.0766  -0.0000
  19 Cl_a:2pz   -0.0000  -0.1839   0.0000  -0.0911   0.0000  -0.0132
  20 Cl_a:2px    0.0077   0.0000  -0.0035   0.0000   0.0574   0.0000
  21 Cl_a:2py    0.0237  -0.0000  -0.0396  -0.0000   0.1244  -0.0000
  22 Cl_a:2pz   -0.0000   0.0061   0.0000  -0.0115   0.0000   0.0008
  23 Cl_a:2px   -0.4564   0.0000   0.1438   0.0000  -0.2023   0.0000
  24 Cl_a:2py    0.4442   0.0000  -0.8369   0.0000   0.4211   0.0000
  25 Cl_a:2pz   -0.0000  -0.8068   0.0000  -0.0545   0.0000  -0.0865
  35 Cl_a:2px    0.8263   0.0000  -2.1061   0.0000  -0.8000   0.0000
  36 Cl_a:2py    1.5777   0.0000   0.3058   0.0000  -1.1217   0.0000
  37 Cl_a:2pz   -0.0000   0.7840   0.0000   1.8943  -0.0000  -0.5539
  58 Cl_a:3d2-   0.0213  -0.0000  -0.0063  -0.0000   0.0013  -0.0000
  59 Cl_a:3d1-   0.0000   0.0046  -0.0000   0.0117  -0.0000  -0.0074
  60 Cl_a:3d0   -0.0187  -0.0000  -0.0069  -0.0000   0.0032   0.0000
  61 Cl_a:3d1+   0.0000   0.0028  -0.0000   0.0002  -0.0000  -0.0160
  62 Cl_a:3d2+  -0.0105  -0.0000  -0.0107  -0.0000   0.0108  -0.0000
  63 Cl_a:3d2-  -0.0456  -0.0000   0.0164  -0.0000   0.0776  -0.0000
  64 Cl_a:3d1-   0.0000  -0.0450  -0.0000  -0.0476  -0.0000  -0.0111
  65 Cl_a:3d0    0.0208  -0.0000   0.0831  -0.0000  -0.0513   0.0000
  66 Cl_a:3d1+   0.0000  -0.0183  -0.0000  -0.0012  -0.0000  -0.0111
  67 Cl_a:3d2+  -0.0495  -0.0000   0.1417  -0.0000  -0.0880  -0.0000
  68 Cl_a:3d2-   0.0244  -0.0000  -0.3315  -0.0000  -0.2974  -0.0000
  69 Cl_a:3d1-   0.0000  -0.1875  -0.0000   0.4362  -0.0000  -0.0932
  70 Cl_a:3d0   -0.2570  -0.0000   0.0771  -0.0000   0.1988   0.0000
  71 Cl_a:3d1+   0.0000  -0.0488  -0.0000   0.1145  -0.0000  -0.1349
  72 Cl_a:3d2+  -0.3521  -0.0000  -0.0147  -0.0000   0.1300  -0.0000
  94 Cl_a:4f3-   0.0024   0.0000   0.0260   0.0000  -0.0111  -0.0000
  95 Cl_a:4f2-  -0.0000  -0.0001  -0.0000  -0.0112  -0.0000   0.0162
  96 Cl_a:4f1-   0.0077  -0.0000   0.0094   0.0000  -0.0401  -0.0000
  97 Cl_a:4f0   -0.0000  -0.0013   0.0000   0.0160   0.0000   0.0088
  98 Cl_a:4f1+   0.0060  -0.0000  -0.0012  -0.0000  -0.0102  -0.0000
  99 Cl_a:4f2+  -0.0000  -0.0017   0.0000   0.0191   0.0000  -0.0058
 100 Cl_a:4f3+  -0.0049  -0.0000  -0.0118  -0.0000  -0.0414  -0.0000
 101 Cl_a:4f3-  -0.0581  -0.0000  -0.0045  -0.0000  -0.0009  -0.0000
 102 Cl_a:4f2-   0.0000  -0.0280  -0.0000   0.0440  -0.0000  -0.0411
 103 Cl_a:4f1-  -0.0351  -0.0000   0.0248  -0.0000   0.0616  -0.0000
 104 Cl_a:4f0   -0.0000   0.0376   0.0000  -0.0500   0.0000  -0.0064
 105 Cl_a:4f1+  -0.0089   0.0000   0.0062   0.0000   0.0162   0.0000
 106 Cl_a:4f2+  -0.0000   0.0386   0.0000  -0.0518   0.0000   0.0205
 107 Cl_a:4f3+   0.0085   0.0000   0.0316   0.0000   0.0556   0.0000
 129 Cl_a:5g1-  -0.0000   0.0126   0.0000  -0.0040   0.0000  -0.0003
 133 Cl_a:5g3+  -0.0000   0.0105   0.0000  -0.0079   0.0000   0.0019
 134 Cl_a:5g4+   0.0101   0.0000  -0.0081   0.0000   0.0036   0.0000
 135 N_a :1s     0.0120   0.0000   0.0031   0.0000  -0.0084   0.0000
 136 N_a :1s     0.1562   0.0000   0.0240   0.0000  -0.0833   0.0000
 137 N_a :1s    -0.0069  -0.0000  -0.0133  -0.0000  -0.0134  -0.0000
 138 N_a :1s     0.1185   0.0000   0.0802   0.0000  -0.2010   0.0000
 139 N_a :1s     0.5055   0.0000   1.7695   0.0000   0.0277   0.0000
 143 N_a :1s    -2.4302  -0.0000   4.9375  -0.0000   0.9821  -0.0000
 144 N_a :2px   -0.0525   0.0000  -0.0116   0.0000   0.0146   0.0000
 145 N_a :2py   -0.0509  -0.0000   0.0985  -0.0000   0.2049   0.0000
 146 N_a :2pz   -0.0000  -0.1111   0.0000   0.1510   0.0000  -0.1643
 147 N_a :2px    0.0055  -0.0000   0.0039  -0.0000  -0.0471  -0.0000
 148 N_a :2py    0.0152  -0.0000   0.0121  -0.0000  -0.0016  -0.0000
 149 N_a :2pz   -0.0000  -0.0033   0.0000  -0.0022   0.0000  -0.0368
 150 N_a :2px    0.0899   0.0000   0.1782   0.0000   0.0625   0.0000
 151 N_a :2py   -0.1013   0.0000  -0.0144   0.0000  -0.1328   0.0000
 152 N_a :2pz   -0.0000  -0.0609   0.0000   0.0930   0.0000   0.2739
 153 N_a :2px    0.3529   0.0000   0.5088   0.0000   1.1886   0.0000
 154 N_a :2py   -0.1427   0.0000  -0.9231   0.0000  -0.4105   0.0000
 155 N_a :2pz   -0.0000  -0.2961   0.0000   0.5366   0.0000   1.8515
 165 N_a :2px    0.9787   0.0000   2.2508   0.0000   2.3944   0.0000
 166 N_a :2py   -0.6377   0.0000  -1.4304   0.0000   0.7487   0.0000
 167 N_a :2pz   -0.0000   0.6156   0.0000  -1.9434   0.0000   3.2956
 186 N_a :3d1+  -0.0000  -0.0055   0.0000   0.0071   0.0000   0.0179
 187 N_a :3d2+   0.0083   0.0000   0.0145   0.0000  -0.0108   0.0000
 188 N_a :3d2-  -0.1378   0.0000  -0.0321   0.0000  -0.1788   0.0000
 189 N_a :3d1-   0.0000  -0.0448  -0.0000   0.0211  -0.0000   0.0473
 190 N_a :3d0    0.0274  -0.0000  -0.0437  -0.0000  -0.0592  -0.0000
 191 N_a :3d1+  -0.0000  -0.1173   0.0000   0.1655   0.0000   0.3757
 192 N_a :3d2+   0.0145   0.0000   0.0331   0.0000   0.2729   0.0000
 193 N_a :3d2-  -0.6519   0.0000  -0.3324  -0.0000  -0.5999   0.0000
 194 N_a :3d1-  -0.0000  -0.2184   0.0000   0.3976   0.0000   0.0443
 195 N_a :3d0    0.0345  -0.0000  -0.1955  -0.0000  -0.0975  -0.0000
 196 N_a :3d1+  -0.0000  -0.1498   0.0000   0.2414   0.0000   1.1584
 197 N_a :3d2+   0.0001   0.0000  -0.1105   0.0000   0.9352   0.0000
 212 N_a :4f3-  -0.0181   0.0000  -0.0046   0.0000  -0.0176   0.0000
 215 N_a :4f0    0.0000   0.0161  -0.0000  -0.0210  -0.0000  -0.0221
 216 N_a :4f1+   0.0024  -0.0000  -0.0046  -0.0000  -0.0150  -0.0000
 217 N_a :4f2+  -0.0000  -0.0114   0.0000   0.0164   0.0000   0.0352
 218 N_a :4f3+   0.0063   0.0000   0.0099   0.0000   0.0264   0.0000
 219 N_a :4f3-  -0.0519   0.0000  -0.0629   0.0000  -0.1107   0.0000
 220 N_a :4f2-  -0.0000   0.0005   0.0000   0.0310   0.0000   0.0241
 221 N_a :4f1-   0.0076  -0.0000   0.0534  -0.0000  -0.0266  -0.0000
 222 N_a :4f0    0.0000  -0.0156  -0.0000  -0.0089  -0.0000  -0.1287
 223 N_a :4f1+  -0.0132  -0.0000   0.0190  -0.0000  -0.0676  -0.0000
 224 N_a :4f2+  -0.0000  -0.0622   0.0000   0.0725   0.0000   0.1300
 225 N_a :4f3+  -0.0825   0.0000   0.0467   0.0000   0.0919   0.0000
 235 N_a :5g4-  -0.0038   0.0000  -0.0131   0.0000  -0.0057   0.0000
 240 N_a :5g1+   0.0000   0.0059  -0.0000  -0.0083  -0.0000  -0.0155
 241 N_a :5g2+   0.0008  -0.0000   0.0017  -0.0000  -0.0125  -0.0000
 242 N_a :5g3+  -0.0000  -0.0056   0.0000   0.0098   0.0000   0.0133
 243 N_a :5g4+  -0.0078   0.0000  -0.0030   0.0000   0.0104   0.0000
 245 O_a :1s    -0.0183  -0.0000  -0.0100  -0.0000   0.0351  -0.0000
 246 O_a :1s    -0.0023   0.0000   0.0047   0.0000   0.0162   0.0000
 247 O_a :1s     0.1026  -0.0000   0.0054  -0.0000  -0.2618  -0.0000
 248 O_a :1s    -0.2397  -0.0000  -0.7284  -0.0000  -1.0393  -0.0000
 252 O_a :1s    -0.8551   0.0000  -3.8919   0.0000  -0.8439   0.0000
 253 O_a :2px    0.0238   0.0000   0.0079   0.0000   0.0290   0.0000
 254 O_a :2py    0.0082  -0.0000  -0.0465  -0.0000  -0.1587  -0.0000
 255 O_a :2pz    0.0000  -0.0292  -0.0000  -0.0081  -0.0000   0.2106
 256 O_a :2px   -0.0100  -0.0000  -0.0112  -0.0000   0.0127  -0.0000
 257 O_a :2py   -0.0042  -0.0000  -0.0035  -0.0000  -0.0172  -0.0000
 258 O_a :2pz   -0.0000  -0.0142   0.0000   0.0173   0.0000   0.0290
 259 O_a :2px    0.0086   0.0000   0.0736   0.0000   0.1255   0.0000
 260 O_a :2py    0.0245   0.0000   0.0366   0.0000   0.1060   0.0000
 261 O_a :2pz    0.0000   0.0557  -0.0000  -0.0785  -0.0000  -0.1186
 262 O_a :2px    0.3720   0.0000   0.6587   0.0000  -0.4613   0.0000
 263 O_a :2py    0.6209  -0.0000   0.6115  -0.0000   0.6814  -0.0000
 264 O_a :2pz    0.0000   0.2521  -0.0000  -0.4605  -0.0000  -1.5199
 274 O_a :2px   -0.2148  -0.0000   0.5617   0.0000  -1.5639  -0.0000
 275 O_a :2py    1.1310  -0.0000   0.3446  -0.0000   0.2920  -0.0000
 276 O_a :2pz    0.0000   0.1923  -0.0000  -0.1136  -0.0000  -3.5297
 296 O_a :3d2+   0.0011  -0.0000  -0.0007  -0.0000  -0.0152  -0.0000
 297 O_a :3d2-  -0.0789  -0.0000  -0.0720  -0.0000  -0.1075   0.0000
 298 O_a :3d1-  -0.0000  -0.0127   0.0000   0.0087   0.0000   0.0359
 299 O_a :3d0    0.0459   0.0000   0.0440   0.0000  -0.0097   0.0000
 300 O_a :3d1+  -0.0000  -0.0554   0.0000   0.0884   0.0000   0.1968
 301 O_a :3d2+  -0.0082  -0.0000  -0.0433  -0.0000   0.0721  -0.0000
 302 O_a :3d2-  -0.2453   0.0000  -0.2169   0.0000  -0.2696   0.0000
 303 O_a :3d1-  -0.0000   0.0250   0.0000  -0.0497   0.0000   0.1559
 304 O_a :3d0    0.0826  -0.0000   0.0723  -0.0000  -0.3086  -0.0000
 305 O_a :3d1+  -0.0000  -0.1555   0.0000   0.2362   0.0000   0.9440
 306 O_a :3d2+  -0.0046   0.0000  -0.1136   0.0000   0.3520   0.0000
 321 O_a :4f3-   0.0123  -0.0000   0.0079  -0.0000   0.0097  -0.0000
 324 O_a :4f0   -0.0000  -0.0024   0.0000   0.0041   0.0000   0.0118
 326 O_a :4f2+   0.0000   0.0041  -0.0000  -0.0072  -0.0000  -0.0131
 328 O_a :4f3-   0.0391  -0.0000   0.0231   0.0000   0.0449  -0.0000
 329 O_a :4f2-   0.0000   0.0052  -0.0000   0.0058  -0.0000  -0.0431
 331 O_a :4f0   -0.0000  -0.0207   0.0000   0.0315   0.0000   0.0988
 332 O_a :4f1+  -0.0201   0.0000  -0.0117   0.0000   0.0584   0.0000
 333 O_a :4f2+   0.0000   0.0315  -0.0000  -0.0429  -0.0000  -0.1209
 334 O_a :4f3+  -0.0191  -0.0000   0.0107  -0.0000  -0.0616  -0.0000
 349 O_a :5g1+  -0.0000   0.0019   0.0000  -0.0032   0.0000  -0.0162
 351 O_a :5g3+   0.0000  -0.0037  -0.0000   0.0049   0.0000   0.0121

  Total CPU  time used in SIRIUS :  9 minutes 37 seconds
  Total wall time used in SIRIUS :  9 minutes 39 seconds

 
     Date and time (Linux)  : Wed Sep 13 22:42:35 2023
     Host name              : sn-mem                                  


                     .---------------------------------------.
                     | End of Wave Function Section (SIRIUS) |
                     `---------------------------------------'



                 .------------------------------------------------.
                 | Starting in Dynamic Property Section (RESPONS) |
                 `------------------------------------------------'


 ----------------------------------------------------------------------------------------
  RESPONSE  -  an MCSCF, MC-srDFT, DFT, SOPPA and SOPPA-srDFT response property program
 ----------------------------------------------------------------------------------------


 -------- OUTPUT FROM RESPONSE INPUT PROCESSING --------




 Quadratic Response calculation
 ------------------------------

 First hyperpolarizability calculation : HYPCAL= T

 Spin of operator A , ISPINA=    0
 Spin of operator B , ISPINB=    0
 Spin of operator C , ISPINC=    0

  5 B-frequencies  0.000000D+00  6.344563D-03  1.268913D-02  1.903369D-02  2.537825D-02
  5 C-frequencies  0.000000D+00  6.344563D-03  1.268913D-02  1.903369D-02  2.537825D-02


 Print level                                    : IPRHYP =   2
 Maximum number of iterations in lin.rsp. solver: MAXITL =  60
 Threshold for convergence of linear resp. eq.s : THCLR  = 1.000D-03
 Maximum iterations in optimal orbital algorithm: MAXITO =   5
 Direct one-index transformation                : DIROIT = T

    3 A OPERATORS OF SYMMETRY NO:    1 AND LABELS:

          XDIPLEN 
          YDIPLEN 
          ZDIPLEN 

    3 B OPERATORS OF SYMMETRY NO:    1 AND LABELS:

          XDIPLEN 
          YDIPLEN 
          ZDIPLEN 

    3 C OPERATORS OF SYMMETRY NO:    1 AND LABELS:

          XDIPLEN 
          YDIPLEN 
          ZDIPLEN 


   SCF energy         :     -588.781614276163168
 -- inactive part     :     -673.930034060616208
 -- nuclear repulsion :       85.148419784453068


                     ***************************************
                     *** RHF response calculation (TDHF) ***
                     ***************************************



 Linear response calculations for quadratic response
 - singlet property operator of symmetry    1  ( A  )


 Perturbation symmetry.     KSYMOP:           1
 Perturbation spin symmetry.TRPLET:           F
 Orbital variables.         KZWOPT:        5376
 Configuration variables.   KZCONF:           0
 Total number of variables. KZVAR :        5376


 QRLRVE -- linear response calculation for symmetry  1  ( A  )
 QRLRVE -- operator label : XDIPLEN 
 QRLRVE -- operator spin  :   0
 QRLRVE -- frequencies :  0.000000  0.006345  0.012689  0.019034  0.025378
                          0.031723  0.038067  0.044412  0.050757



 ---  SOLVING SETS OF LINEAR EQUATIONS FOR LINEAR RESPONSE PROPERTIES ---

 Operator symmetry = 1  ( A  ); triplet =   F

RSPORT:    2 out of    9 new trial vectors linear dependent

 ** RSPCTL MICROITERATION NUMBER    1

       No.  Residual tot.,    conf., and orb.    Bnorm      Frequency 
      ----------------------------------------------------------------
         1    4.13672D+00  0.00D+00  4.14D+00  4.13D+00    0.00000D+00
         2    4.13745D+00  0.00D+00  4.14D+00  4.13D+00    6.34456D-03
         3    4.13966D+00  0.00D+00  4.14D+00  4.13D+00    1.26891D-02
         4    4.14335D+00  0.00D+00  4.14D+00  4.14D+00    1.90337D-02
         5    4.14854D+00  0.00D+00  4.15D+00  4.15D+00    2.53783D-02
         6    4.15524D+00  0.00D+00  4.16D+00  4.17D+00    3.17228D-02
         7    4.16350D+00  0.00D+00  4.16D+00  4.19D+00    3.80674D-02
         8    4.17333D+00  0.00D+00  4.17D+00  4.21D+00    4.44119D-02
         9    4.18479D+00  0.00D+00  4.18D+00  4.24D+00    5.07565D-02

 ** RSPCTL MICROITERATION NUMBER    2

       No.  Residual tot.,    conf., and orb.    Bnorm      Frequency 
      ----------------------------------------------------------------
         1    1.60805D+00  0.00D+00  1.61D+00  5.11D+00    0.00000D+00
         2    1.60859D+00  0.00D+00  1.61D+00  5.11D+00    6.34456D-03
         3    1.61022D+00  0.00D+00  1.61D+00  5.12D+00    1.26891D-02
         4    1.61295D+00  0.00D+00  1.61D+00  5.13D+00    1.90337D-02
         5    1.61680D+00  0.00D+00  1.62D+00  5.15D+00    2.53783D-02
         6    1.62180D+00  0.00D+00  1.62D+00  5.18D+00    3.17228D-02
         7    1.62799D+00  0.00D+00  1.63D+00  5.21D+00    3.80674D-02
         8    1.63542D+00  0.00D+00  1.64D+00  5.25D+00    4.44119D-02
         9    1.64414D+00  0.00D+00  1.64D+00  5.29D+00    5.07565D-02

 ** RSPCTL MICROITERATION NUMBER    3

       No.  Residual tot.,    conf., and orb.    Bnorm      Frequency 
      ----------------------------------------------------------------
         1    3.19496D-01  0.00D+00  3.19D-01  5.23D+00    0.00000D+00
         2    3.19708D-01  0.00D+00  3.20D-01  5.23D+00    6.34456D-03
         3    3.20345D-01  0.00D+00  3.20D-01  5.24D+00    1.26891D-02
         4    3.21416D-01  0.00D+00  3.21D-01  5.26D+00    1.90337D-02
         5    3.22934D-01  0.00D+00  3.23D-01  5.28D+00    2.53783D-02
         6    3.24918D-01  0.00D+00  3.25D-01  5.31D+00    3.17228D-02
         7    3.27396D-01  0.00D+00  3.27D-01  5.34D+00    3.80674D-02
         8    3.30401D-01  0.00D+00  3.30D-01  5.39D+00    4.44119D-02
         9    3.33975D-01  0.00D+00  3.34D-01  5.44D+00    5.07565D-02

 ** RSPCTL MICROITERATION NUMBER    4

       No.  Residual tot.,    conf., and orb.    Bnorm      Frequency 
      ----------------------------------------------------------------
         1    1.04588D-01  0.00D+00  1.05D-01  5.24D+00    0.00000D+00
         2    1.04695D-01  0.00D+00  1.05D-01  5.24D+00    6.34456D-03
         3    1.05017D-01  0.00D+00  1.05D-01  5.25D+00    1.26891D-02
         4    1.05558D-01  0.00D+00  1.06D-01  5.26D+00    1.90337D-02
         5    1.06326D-01  0.00D+00  1.06D-01  5.29D+00    2.53783D-02
         6    1.07331D-01  0.00D+00  1.07D-01  5.31D+00    3.17228D-02
         7    1.08587D-01  0.00D+00  1.09D-01  5.35D+00    3.80674D-02
         8    1.10112D-01  0.00D+00  1.10D-01  5.39D+00    4.44119D-02
         9    1.11930D-01  0.00D+00  1.12D-01  5.44D+00    5.07565D-02

 ** RSPCTL MICROITERATION NUMBER    5

       No.  Residual tot.,    conf., and orb.    Bnorm      Frequency 
      ----------------------------------------------------------------
         1    2.06540D-02  0.00D+00  2.07D-02  5.24D+00    0.00000D+00
         2    2.06783D-02  0.00D+00  2.07D-02  5.24D+00    6.34456D-03
         3    2.07517D-02  0.00D+00  2.08D-02  5.25D+00    1.26891D-02
         4    2.08752D-02  0.00D+00  2.09D-02  5.26D+00    1.90337D-02
         5    2.10511D-02  0.00D+00  2.11D-02  5.29D+00    2.53783D-02
         6    2.12822D-02  0.00D+00  2.13D-02  5.32D+00    3.17228D-02
         7    2.15728D-02  0.00D+00  2.16D-02  5.35D+00    3.80674D-02
         8    2.19281D-02  0.00D+00  2.19D-02  5.39D+00    4.44119D-02
         9    2.23548D-02  0.00D+00  2.24D-02  5.44D+00    5.07565D-02

 ** RSPCTL MICROITERATION NUMBER    6

       No.  Residual tot.,    conf., and orb.    Bnorm      Frequency 
      ----------------------------------------------------------------
         1    3.00319D-03  0.00D+00  3.00D-03  5.24D+00    0.00000D+00
         2    3.00580D-03  0.00D+00  3.01D-03  5.24D+00    6.34456D-03
         3    3.01365D-03  0.00D+00  3.01D-03  5.25D+00    1.26891D-02
         4    3.02686D-03  0.00D+00  3.03D-03  5.26D+00    1.90337D-02
         5    3.04564D-03  0.00D+00  3.05D-03  5.29D+00    2.53783D-02
         6    3.07027D-03  0.00D+00  3.07D-03  5.32D+00    3.17228D-02
         7    3.10118D-03  0.00D+00  3.10D-03  5.35D+00    3.80674D-02
         8    3.13889D-03  0.00D+00  3.14D-03  5.39D+00    4.44119D-02
         9    3.18412D-03  0.00D+00  3.18D-03  5.44D+00    5.07565D-02

 *** THE REQUESTED    9 SOLUTION VECTORS CONVERGED

 Convergence of RSP solution vectors, threshold = 1.00D-03
 ---------------------------------------------------------------
 (dimension of paired reduced space:  104)
 RSP solution vector no.    1; norm of residual   5.74D-04
 RSP solution vector no.    2; norm of residual   5.74D-04
 RSP solution vector no.    3; norm of residual   5.74D-04
 RSP solution vector no.    4; norm of residual   5.75D-04
 RSP solution vector no.    5; norm of residual   5.76D-04
 RSP solution vector no.    6; norm of residual   5.78D-04
 RSP solution vector no.    7; norm of residual   5.80D-04
 RSP solution vector no.    8; norm of residual   5.82D-04
 RSP solution vector no.    9; norm of residual   5.85D-04

 *** RSPCTL MICROITERATIONS CONVERGED

@ QRLRVE: SINGLET SOLUTION FOR SYMMETRY    1  ( A  )    LABEL   XDIPLEN     FREQUENCY   0.000000D+00

@ QRLRVE:  << XDIPLEN  ; XDIPLEN  >> (   0.00000):     31.6964088673    

@ QRLRVE:  << YDIPLEN  ; XDIPLEN  >> (   0.00000):     12.8546364134    

@ QRLRVE:  << ZDIPLEN  ; XDIPLEN  >> (   0.00000):   -8.265683142976E-16

@ QRLRVE: SINGLET SOLUTION FOR SYMMETRY    1  ( A  )    LABEL   XDIPLEN     FREQUENCY   0.634456D-02

@ QRLRVE:  << XDIPLEN  ; XDIPLEN  >> (   0.00634):     31.7034447032    

@ QRLRVE:  << YDIPLEN  ; XDIPLEN  >> (   0.00634):     12.8627378814    

@ QRLRVE:  << ZDIPLEN  ; XDIPLEN  >> (   0.00634):   -8.382021658549E-16

@ QRLRVE: SINGLET SOLUTION FOR SYMMETRY    1  ( A  )    LABEL   XDIPLEN     FREQUENCY   0.126891D-01

@ QRLRVE:  << XDIPLEN  ; XDIPLEN  >> (   0.01269):     31.7245913341    

@ QRLRVE:  << YDIPLEN  ; XDIPLEN  >> (   0.01269):     12.8871134369    

@ QRLRVE:  << ZDIPLEN  ; XDIPLEN  >> (   0.01269):   -8.734560095060E-16

@ QRLRVE: SINGLET SOLUTION FOR SYMMETRY    1  ( A  )    LABEL   XDIPLEN     FREQUENCY   0.190337D-01

@ QRLRVE:  << XDIPLEN  ; XDIPLEN  >> (   0.01903):     31.7599669385    

@ QRLRVE:  << YDIPLEN  ; XDIPLEN  >> (   0.01903):     12.9279782827    

@ QRLRVE:  << ZDIPLEN  ; XDIPLEN  >> (   0.01903):   -9.334029767811E-16

@ QRLRVE: SINGLET SOLUTION FOR SYMMETRY    1  ( A  )    LABEL   XDIPLEN     FREQUENCY   0.253783D-01

@ QRLRVE:  << XDIPLEN  ; XDIPLEN  >> (   0.02538):     31.8097712147    

@ QRLRVE:  << YDIPLEN  ; XDIPLEN  >> (   0.02538):     12.9856970040    

@ QRLRVE:  << ZDIPLEN  ; XDIPLEN  >> (   0.02538):   -1.019886952840E-15

@ QRLRVE: SINGLET SOLUTION FOR SYMMETRY    1  ( A  )    LABEL   XDIPLEN     FREQUENCY   0.317228D-01

@ QRLRVE:  << XDIPLEN  ; XDIPLEN  >> (   0.03172):     31.8742896164    

@ QRLRVE:  << YDIPLEN  ; XDIPLEN  >> (   0.03172):     13.0607927470    

@ QRLRVE:  << ZDIPLEN  ; XDIPLEN  >> (   0.03172):   -1.135609595151E-15

@ QRLRVE: SINGLET SOLUTION FOR SYMMETRY    1  ( A  )    LABEL   XDIPLEN     FREQUENCY   0.380674D-01

@ QRLRVE:  << XDIPLEN  ; XDIPLEN  >> (   0.03807):     31.9538995624    

@ QRLRVE:  << YDIPLEN  ; XDIPLEN  >> (   0.03807):     13.1539607118    

@ QRLRVE:  << ZDIPLEN  ; XDIPLEN  >> (   0.03807):   -1.284260607706E-15

@ QRLRVE: SINGLET SOLUTION FOR SYMMETRY    1  ( A  )    LABEL   XDIPLEN     FREQUENCY   0.444119D-01

@ QRLRVE:  << XDIPLEN  ; XDIPLEN  >> (   0.04441):     32.0490789293    

@ QRLRVE:  << YDIPLEN  ; XDIPLEN  >> (   0.04441):     13.2660866675    

@ QRLRVE:  << ZDIPLEN  ; XDIPLEN  >> (   0.04441):   -1.470700728543E-15

@ QRLRVE: SINGLET SOLUTION FOR SYMMETRY    1  ( A  )    LABEL   XDIPLEN     FREQUENCY   0.507565D-01

@ QRLRVE:  << XDIPLEN  ; XDIPLEN  >> (   0.05076):     32.1604172667    

@ QRLRVE:  << YDIPLEN  ; XDIPLEN  >> (   0.05076):     13.3982715023    

@ QRLRVE:  << ZDIPLEN  ; XDIPLEN  >> (   0.05076):   -1.701211189503E-15


 QRLRVE -- linear response calculation for symmetry  1  ( A  )
 QRLRVE -- operator label : YDIPLEN 
 QRLRVE -- operator spin  :   0
 QRLRVE -- frequencies :  0.000000  0.006345  0.012689  0.019034  0.025378
                          0.031723  0.038067  0.044412  0.050757



 ---  SOLVING SETS OF LINEAR EQUATIONS FOR LINEAR RESPONSE PROPERTIES ---

 Operator symmetry = 1  ( A  ); triplet =   F

RSPORT:    2 out of    9 new trial vectors linear dependent

 ** RSPCTL MICROITERATION NUMBER    1

       No.  Residual tot.,    conf., and orb.    Bnorm      Frequency 
      ----------------------------------------------------------------
         1    4.87558D+00  0.00D+00  4.88D+00  5.61D+00    0.00000D+00
         2    4.87731D+00  0.00D+00  4.88D+00  5.62D+00    6.34456D-03
         3    4.88250D+00  0.00D+00  4.88D+00  5.63D+00    1.26891D-02
         4    4.89117D+00  0.00D+00  4.89D+00  5.65D+00    1.90337D-02
         5    4.90339D+00  0.00D+00  4.90D+00  5.68D+00    2.53783D-02
         6    4.91920D+00  0.00D+00  4.92D+00  5.71D+00    3.17228D-02
         7    4.93870D+00  0.00D+00  4.94D+00  5.76D+00    3.80674D-02
         8    4.96199D+00  0.00D+00  4.96D+00  5.81D+00    4.44119D-02
         9    4.98920D+00  0.00D+00  4.99D+00  5.87D+00    5.07565D-02

 ** RSPCTL MICROITERATION NUMBER    2

       No.  Residual tot.,    conf., and orb.    Bnorm      Frequency 
      ----------------------------------------------------------------
         1    1.70191D+00  0.00D+00  1.70D+00  7.46D+00    0.00000D+00
         2    1.70319D+00  0.00D+00  1.70D+00  7.47D+00    6.34456D-03
         3    1.70704D+00  0.00D+00  1.71D+00  7.49D+00    1.26891D-02
         4    1.71349D+00  0.00D+00  1.71D+00  7.52D+00    1.90337D-02
         5    1.72262D+00  0.00D+00  1.72D+00  7.58D+00    2.53783D-02
         6    1.73453D+00  0.00D+00  1.73D+00  7.64D+00    3.17228D-02
         7    1.74935D+00  0.00D+00  1.75D+00  7.73D+00    3.80674D-02
         8    1.76725D+00  0.00D+00  1.77D+00  7.83D+00    4.44119D-02
         9    1.78843D+00  0.00D+00  1.79D+00  7.94D+00    5.07565D-02

 ** RSPCTL MICROITERATION NUMBER    3

       No.  Residual tot.,    conf., and orb.    Bnorm      Frequency 
      ----------------------------------------------------------------
         1    4.62186D-01  0.00D+00  4.62D-01  7.70D+00    0.00000D+00
         2    4.62631D-01  0.00D+00  4.63D-01  7.71D+00    6.34456D-03
         3    4.63970D-01  0.00D+00  4.64D-01  7.73D+00    1.26891D-02
         4    4.66221D-01  0.00D+00  4.66D-01  7.77D+00    1.90337D-02
         5    4.69414D-01  0.00D+00  4.69D-01  7.83D+00    2.53783D-02
         6    4.73592D-01  0.00D+00  4.74D-01  7.90D+00    3.17228D-02
         7    4.78813D-01  0.00D+00  4.79D-01  7.99D+00    3.80674D-02
         8    4.85151D-01  0.00D+00  4.85D-01  8.11D+00    4.44119D-02
         9    4.92700D-01  0.00D+00  4.93D-01  8.24D+00    5.07565D-02

 ** RSPCTL MICROITERATION NUMBER    4

       No.  Residual tot.,    conf., and orb.    Bnorm      Frequency 
      ----------------------------------------------------------------
         1    1.19239D-01  0.00D+00  1.19D-01  7.70D+00    0.00000D+00
         2    1.19307D-01  0.00D+00  1.19D-01  7.71D+00    6.34456D-03
         3    1.19509D-01  0.00D+00  1.20D-01  7.74D+00    1.26891D-02
         4    1.19849D-01  0.00D+00  1.20D-01  7.78D+00    1.90337D-02
         5    1.20329D-01  0.00D+00  1.20D-01  7.83D+00    2.53783D-02
         6    1.20952D-01  0.00D+00  1.21D-01  7.91D+00    3.17228D-02
         7    1.21725D-01  0.00D+00  1.22D-01  8.00D+00    3.80674D-02
         8    1.22656D-01  0.00D+00  1.23D-01  8.11D+00    4.44119D-02
         9    1.23754D-01  0.00D+00  1.24D-01  8.25D+00    5.07565D-02

 ** RSPCTL MICROITERATION NUMBER    5

       No.  Residual tot.,    conf., and orb.    Bnorm      Frequency 
      ----------------------------------------------------------------
         1    2.18870D-02  0.00D+00  2.19D-02  7.70D+00    0.00000D+00
         2    2.19019D-02  0.00D+00  2.19D-02  7.71D+00    6.34456D-03
         3    2.19467D-02  0.00D+00  2.19D-02  7.74D+00    1.26891D-02
         4    2.20218D-02  0.00D+00  2.20D-02  7.78D+00    1.90337D-02
         5    2.21280D-02  0.00D+00  2.21D-02  7.83D+00    2.53783D-02
         6    2.22662D-02  0.00D+00  2.23D-02  7.91D+00    3.17228D-02
         7    2.24379D-02  0.00D+00  2.24D-02  8.00D+00    3.80674D-02
         8    2.26449D-02  0.00D+00  2.26D-02  8.11D+00    4.44119D-02
         9    2.28896D-02  0.00D+00  2.29D-02  8.25D+00    5.07565D-02

 ** RSPCTL MICROITERATION NUMBER    6

       No.  Residual tot.,    conf., and orb.    Bnorm      Frequency 
      ----------------------------------------------------------------
         1    3.72968D-03  0.00D+00  3.73D-03  7.70D+00    0.00000D+00
         2    3.73227D-03  0.00D+00  3.73D-03  7.71D+00    6.34456D-03
         3    3.74006D-03  0.00D+00  3.74D-03  7.74D+00    1.26891D-02
         4    3.75312D-03  0.00D+00  3.75D-03  7.78D+00    1.90337D-02
         5    3.77156D-03  0.00D+00  3.77D-03  7.83D+00    2.53783D-02
         6    3.79556D-03  0.00D+00  3.80D-03  7.91D+00    3.17228D-02
         7    3.82536D-03  0.00D+00  3.83D-03  8.00D+00    3.80674D-02
         8    3.86129D-03  0.00D+00  3.86D-03  8.11D+00    4.44119D-02
         9    3.90380D-03  0.00D+00  3.90D-03  8.25D+00    5.07565D-02

 *** THE REQUESTED    9 SOLUTION VECTORS CONVERGED

 Convergence of RSP solution vectors, threshold = 1.00D-03
 ---------------------------------------------------------------
 (dimension of paired reduced space:  104)
 RSP solution vector no.    1; norm of residual   4.84D-04
 RSP solution vector no.    2; norm of residual   4.84D-04
 RSP solution vector no.    3; norm of residual   4.83D-04
 RSP solution vector no.    4; norm of residual   4.83D-04
 RSP solution vector no.    5; norm of residual   4.81D-04
 RSP solution vector no.    6; norm of residual   4.80D-04
 RSP solution vector no.    7; norm of residual   4.78D-04
 RSP solution vector no.    8; norm of residual   4.76D-04
 RSP solution vector no.    9; norm of residual   4.73D-04

 *** RSPCTL MICROITERATIONS CONVERGED

@ QRLRVE: SINGLET SOLUTION FOR SYMMETRY    1  ( A  )    LABEL   YDIPLEN     FREQUENCY   0.000000D+00

@ QRLRVE:  << XDIPLEN  ; YDIPLEN  >> (   0.00000):     12.8551686374    

@ QRLRVE:  << YDIPLEN  ; YDIPLEN  >> (   0.00000):     47.7687072414    

@ QRLRVE:  << ZDIPLEN  ; YDIPLEN  >> (   0.00000):    3.200538080898E-15

@ QRLRVE: SINGLET SOLUTION FOR SYMMETRY    1  ( A  )    LABEL   YDIPLEN     FREQUENCY   0.634456D-02

@ QRLRVE:  << XDIPLEN  ; YDIPLEN  >> (   0.00634):     12.8632710204    

@ QRLRVE:  << YDIPLEN  ; YDIPLEN  >> (   0.00634):     47.7895986674    

@ QRLRVE:  << ZDIPLEN  ; YDIPLEN  >> (   0.00634):    3.205359388809E-15

@ QRLRVE: SINGLET SOLUTION FOR SYMMETRY    1  ( A  )    LABEL   YDIPLEN     FREQUENCY   0.126891D-01

@ QRLRVE:  << XDIPLEN  ; YDIPLEN  >> (   0.01269):     12.8876493262    

@ QRLRVE:  << YDIPLEN  ; YDIPLEN  >> (   0.01269):     47.8524472317    

@ QRLRVE:  << ZDIPLEN  ; YDIPLEN  >> (   0.01269):    3.219928371535E-15

@ QRLRVE: SINGLET SOLUTION FOR SYMMETRY    1  ( A  )    LABEL   YDIPLEN     FREQUENCY   0.190337D-01

@ QRLRVE:  << XDIPLEN  ; YDIPLEN  >> (   0.01903):     12.9285187739    

@ QRLRVE:  << YDIPLEN  ; YDIPLEN  >> (   0.01903):     47.9577800567    

@ QRLRVE:  << ZDIPLEN  ; YDIPLEN  >> (   0.01903):    3.244565174547E-15

@ QRLRVE: SINGLET SOLUTION FOR SYMMETRY    1  ( A  )    LABEL   YDIPLEN     FREQUENCY   0.253783D-01

@ QRLRVE:  << XDIPLEN  ; YDIPLEN  >> (   0.02538):     12.9862439751    

@ QRLRVE:  << YDIPLEN  ; YDIPLEN  >> (   0.02538):     48.1064900985    

@ QRLRVE:  << ZDIPLEN  ; YDIPLEN  >> (   0.02538):    3.279820294726E-15

@ QRLRVE: SINGLET SOLUTION FOR SYMMETRY    1  ( A  )    LABEL   YDIPLEN     FREQUENCY   0.317228D-01

@ QRLRVE:  << XDIPLEN  ; YDIPLEN  >> (   0.03172):     13.0613481119    

@ QRLRVE:  << YDIPLEN  ; YDIPLEN  >> (   0.03172):     48.2998585253    

@ QRLRVE:  << ZDIPLEN  ; YDIPLEN  >> (   0.03172):    3.326501257199E-15

@ QRLRVE: SINGLET SOLUTION FOR SYMMETRY    1  ( A  )    LABEL   YDIPLEN     FREQUENCY   0.380674D-01

@ QRLRVE:  << XDIPLEN  ; YDIPLEN  >> (   0.03807):     13.1545264286    

@ QRLRVE:  << YDIPLEN  ; YDIPLEN  >> (   0.03807):     48.5395876143    

@ QRLRVE:  << ZDIPLEN  ; YDIPLEN  >> (   0.03807):    3.385712692118E-15

@ QRLRVE: SINGLET SOLUTION FOR SYMMETRY    1  ( A  )    LABEL   YDIPLEN     FREQUENCY   0.444119D-01

@ QRLRVE:  << XDIPLEN  ; YDIPLEN  >> (   0.04441):     13.2666647448    

@ QRLRVE:  << YDIPLEN  ; YDIPLEN  >> (   0.04441):     48.8278458913    

@ QRLRVE:  << ZDIPLEN  ; YDIPLEN  >> (   0.04441):    3.458912884842E-15

@ QRLRVE: SINGLET SOLUTION FOR SYMMETRY    1  ( A  )    LABEL   YDIPLEN     FREQUENCY   0.507565D-01

@ QRLRVE:  << XDIPLEN  ; YDIPLEN  >> (   0.05076):     13.3988640023    

@ QRLRVE:  << YDIPLEN  ; YDIPLEN  >> (   0.05076):     49.1673279799    

@ QRLRVE:  << ZDIPLEN  ; YDIPLEN  >> (   0.05076):    3.547991299058E-15


 QRLRVE -- linear response calculation for symmetry  1  ( A  )
 QRLRVE -- operator label : ZDIPLEN 
 QRLRVE -- operator spin  :   0
 QRLRVE -- frequencies :  0.000000  0.006345  0.012689  0.019034  0.025378
                          0.031723  0.038067  0.044412  0.050757



 ---  SOLVING SETS OF LINEAR EQUATIONS FOR LINEAR RESPONSE PROPERTIES ---

 Operator symmetry = 1  ( A  ); triplet =   F

RSPORT:    2 out of    9 new trial vectors linear dependent

 ** RSPCTL MICROITERATION NUMBER    1

       No.  Residual tot.,    conf., and orb.    Bnorm      Frequency 
      ----------------------------------------------------------------
         1    1.86452D+00  0.00D+00  1.86D+00  3.64D+00    0.00000D+00
         2    1.86472D+00  0.00D+00  1.86D+00  3.64D+00    6.34456D-03
         3    1.86533D+00  0.00D+00  1.87D+00  3.64D+00    1.26891D-02
         4    1.86634D+00  0.00D+00  1.87D+00  3.65D+00    1.90337D-02
         5    1.86776D+00  0.00D+00  1.87D+00  3.65D+00    2.53783D-02
         6    1.86960D+00  0.00D+00  1.87D+00  3.66D+00    3.17228D-02
         7    1.87186D+00  0.00D+00  1.87D+00  3.67D+00    3.80674D-02
         8    1.87455D+00  0.00D+00  1.87D+00  3.69D+00    4.44119D-02
         9    1.87767D+00  0.00D+00  1.88D+00  3.70D+00    5.07565D-02

 ** RSPCTL MICROITERATION NUMBER    2

       No.  Residual tot.,    conf., and orb.    Bnorm      Frequency 
      ----------------------------------------------------------------
         1    6.71626D-01  0.00D+00  6.72D-01  3.88D+00    0.00000D+00
         2    6.71976D-01  0.00D+00  6.72D-01  3.88D+00    6.34456D-03
         3    6.73036D-01  0.00D+00  6.73D-01  3.88D+00    1.26891D-02
         4    6.74834D-01  0.00D+00  6.75D-01  3.89D+00    1.90337D-02
         5    6.77422D-01  0.00D+00  6.77D-01  3.90D+00    2.53783D-02
         6    6.80875D-01  0.00D+00  6.81D-01  3.91D+00    3.17228D-02
         7    6.85304D-01  0.00D+00  6.85D-01  3.93D+00    3.80674D-02
         8    6.90866D-01  0.00D+00  6.91D-01  3.94D+00    4.44119D-02
         9    6.97778D-01  0.00D+00  6.98D-01  3.97D+00    5.07565D-02

 ** RSPCTL MICROITERATION NUMBER    3

       No.  Residual tot.,    conf., and orb.    Bnorm      Frequency 
      ----------------------------------------------------------------
         1    9.99484D-02  0.00D+00  9.99D-02  3.89D+00    0.00000D+00
         2    1.00082D-01  0.00D+00  1.00D-01  3.90D+00    6.34456D-03
         3    1.00492D-01  0.00D+00  1.00D-01  3.90D+00    1.26891D-02
         4    1.01204D-01  0.00D+00  1.01D-01  3.91D+00    1.90337D-02
[...]
@ B-freq = 0.019034  C-freq = 0.019034     beta(Y;Z,Y) =     -0.00000000
@ B-freq = 0.019034  C-freq = 0.019034     beta(Z;Z,Y) =     42.23331495
@ B-freq = 0.025378  C-freq = 0.019034     beta(X;Z,Y) =      0.00000000
@ B-freq = 0.025378  C-freq = 0.019034     beta(Y;Z,Y) =     -0.00000000
@ B-freq = 0.025378  C-freq = 0.019034     beta(Z;Z,Y) =     42.29879220
@ B-freq = 0.000000  C-freq = 0.025378     beta(X;X,Y) = beta(X,Y,X)
@ B-freq = 0.000000  C-freq = 0.025378     beta(Y;X,Y) = beta(Y,Y,X)
@ B-freq = 0.000000  C-freq = 0.025378     beta(Z;X,Y) = beta(Z,Y,X)
@ B-freq = 0.006345  C-freq = 0.025378     beta(X;X,Y) = beta(X,Y,X)
@ B-freq = 0.006345  C-freq = 0.025378     beta(Y;X,Y) = beta(Y,Y,X)
@ B-freq = 0.006345  C-freq = 0.025378     beta(Z;X,Y) = beta(Z,Y,X)
@ B-freq = 0.012689  C-freq = 0.025378     beta(X;X,Y) = beta(X,Y,X)
@ B-freq = 0.012689  C-freq = 0.025378     beta(Y;X,Y) = beta(Y,Y,X)
@ B-freq = 0.012689  C-freq = 0.025378     beta(Z;X,Y) = beta(Z,Y,X)
@ B-freq = 0.019034  C-freq = 0.025378     beta(X;X,Y) = beta(X,Y,X)
@ B-freq = 0.019034  C-freq = 0.025378     beta(Y;X,Y) = beta(Y,Y,X)
@ B-freq = 0.019034  C-freq = 0.025378     beta(Z;X,Y) = beta(Z,Y,X)
@ B-freq = 0.025378  C-freq = 0.025378     beta(X;X,Y) = beta(X,Y,X)
@ B-freq = 0.025378  C-freq = 0.025378     beta(Y;X,Y) = beta(Y,Y,X)
@ B-freq = 0.025378  C-freq = 0.025378     beta(Z;X,Y) = beta(Z,Y,X)
@ B-freq = 0.000000  C-freq = 0.025378     beta(X;Y,Y) = beta(X,Y,Y)
@ B-freq = 0.000000  C-freq = 0.025378     beta(Y;Y,Y) = beta(Y,Y,Y)
@ B-freq = 0.000000  C-freq = 0.025378     beta(Z;Y,Y) = beta(Z,Y,Y)
@ B-freq = 0.006345  C-freq = 0.025378     beta(X;Y,Y) = beta(X,Y,Y)
@ B-freq = 0.006345  C-freq = 0.025378     beta(Y;Y,Y) = beta(Y,Y,Y)
@ B-freq = 0.006345  C-freq = 0.025378     beta(Z;Y,Y) = beta(Z,Y,Y)
@ B-freq = 0.012689  C-freq = 0.025378     beta(X;Y,Y) = beta(X,Y,Y)
@ B-freq = 0.012689  C-freq = 0.025378     beta(Y;Y,Y) = beta(Y,Y,Y)
@ B-freq = 0.012689  C-freq = 0.025378     beta(Z;Y,Y) = beta(Z,Y,Y)
@ B-freq = 0.019034  C-freq = 0.025378     beta(X;Y,Y) = beta(X,Y,Y)
@ B-freq = 0.019034  C-freq = 0.025378     beta(Y;Y,Y) = beta(Y,Y,Y)
@ B-freq = 0.019034  C-freq = 0.025378     beta(Z;Y,Y) = beta(Z,Y,Y)
@ B-freq = 0.025378  C-freq = 0.025378     beta(X;Y,Y) =     -0.13208148
@ B-freq = 0.025378  C-freq = 0.025378     beta(Y;Y,Y) =     67.08650999
@ B-freq = 0.025378  C-freq = 0.025378     beta(Z;Y,Y) =     -0.00000000
@ B-freq = 0.000000  C-freq = 0.025378     beta(X;Z,Y) =     -0.00000000
@ B-freq = 0.000000  C-freq = 0.025378     beta(Y;Z,Y) =     -0.00000000
@ B-freq = 0.000000  C-freq = 0.025378     beta(Z;Z,Y) =     42.35192393
@ B-freq = 0.006345  C-freq = 0.025378     beta(X;Z,Y) =     -0.00000000
@ B-freq = 0.006345  C-freq = 0.025378     beta(Y;Z,Y) =     -0.00000000
@ B-freq = 0.006345  C-freq = 0.025378     beta(Z;Z,Y) =     42.39533047
@ B-freq = 0.012689  C-freq = 0.025378     beta(X;Z,Y) =      0.00000000
@ B-freq = 0.012689  C-freq = 0.025378     beta(Y;Z,Y) =     -0.00000000
@ B-freq = 0.012689  C-freq = 0.025378     beta(Z;Z,Y) =     42.45081781
@ B-freq = 0.019034  C-freq = 0.025378     beta(X;Z,Y) =      0.00000000
@ B-freq = 0.019034  C-freq = 0.025378     beta(Y;Z,Y) =     -0.00000000
@ B-freq = 0.019034  C-freq = 0.025378     beta(Z;Z,Y) =     42.51177607
@ B-freq = 0.025378  C-freq = 0.025378     beta(X;Z,Y) =      0.00000000
@ B-freq = 0.025378  C-freq = 0.025378     beta(Y;Z,Y) =     -0.00000000
@ B-freq = 0.025378  C-freq = 0.025378     beta(Z;Z,Y) =     42.56725956
@ B-freq = 0.000000  C-freq = 0.000000     beta(X;X,Z) = beta(Z,X,X)
@ B-freq = 0.000000  C-freq = 0.000000     beta(Y;X,Z) = beta(Z,Y,X)
@ B-freq = 0.000000  C-freq = 0.000000     beta(Z;X,Z) = beta(Z,Z,X)
@ B-freq = 0.006345  C-freq = 0.000000     beta(X;X,Z) = beta(X,Z,X)
@ B-freq = 0.006345  C-freq = 0.000000     beta(Y;X,Z) = beta(Y,Z,X)
@ B-freq = 0.006345  C-freq = 0.000000     beta(Z;X,Z) = beta(Z,Z,X)
@ B-freq = 0.012689  C-freq = 0.000000     beta(X;X,Z) = beta(X,Z,X)
@ B-freq = 0.012689  C-freq = 0.000000     beta(Y;X,Z) = beta(Y,Z,X)
@ B-freq = 0.012689  C-freq = 0.000000     beta(Z;X,Z) = beta(Z,Z,X)
@ B-freq = 0.019034  C-freq = 0.000000     beta(X;X,Z) = beta(X,Z,X)
@ B-freq = 0.019034  C-freq = 0.000000     beta(Y;X,Z) = beta(Y,Z,X)
@ B-freq = 0.019034  C-freq = 0.000000     beta(Z;X,Z) = beta(Z,Z,X)
@ B-freq = 0.025378  C-freq = 0.000000     beta(X;X,Z) = beta(X,Z,X)
@ B-freq = 0.025378  C-freq = 0.000000     beta(Y;X,Z) = beta(Y,Z,X)
@ B-freq = 0.025378  C-freq = 0.000000     beta(Z;X,Z) = beta(Z,Z,X)
@ B-freq = 0.000000  C-freq = 0.000000     beta(X;Y,Z) = beta(Z,Y,X)
@ B-freq = 0.000000  C-freq = 0.000000     beta(Y;Y,Z) = beta(Z,Y,Y)
@ B-freq = 0.000000  C-freq = 0.000000     beta(Z;Y,Z) = beta(Z,Z,Y)
@ B-freq = 0.006345  C-freq = 0.000000     beta(X;Y,Z) = beta(X,Z,Y)
@ B-freq = 0.006345  C-freq = 0.000000     beta(Y;Y,Z) = beta(Y,Z,Y)
@ B-freq = 0.006345  C-freq = 0.000000     beta(Z;Y,Z) = beta(Z,Z,Y)
@ B-freq = 0.012689  C-freq = 0.000000     beta(X;Y,Z) = beta(X,Z,Y)
@ B-freq = 0.012689  C-freq = 0.000000     beta(Y;Y,Z) = beta(Y,Z,Y)
@ B-freq = 0.012689  C-freq = 0.000000     beta(Z;Y,Z) = beta(Z,Z,Y)
@ B-freq = 0.019034  C-freq = 0.000000     beta(X;Y,Z) = beta(X,Z,Y)
@ B-freq = 0.019034  C-freq = 0.000000     beta(Y;Y,Z) = beta(Y,Z,Y)
@ B-freq = 0.019034  C-freq = 0.000000     beta(Z;Y,Z) = beta(Z,Z,Y)
@ B-freq = 0.025378  C-freq = 0.000000     beta(X;Y,Z) = beta(X,Z,Y)
@ B-freq = 0.025378  C-freq = 0.000000     beta(Y;Y,Z) = beta(Y,Z,Y)
@ B-freq = 0.025378  C-freq = 0.000000     beta(Z;Y,Z) = beta(Z,Z,Y)
@ B-freq = 0.000000  C-freq = 0.000000     beta(X;Z,Z) = beta(Z,Z,X)
@ B-freq = 0.000000  C-freq = 0.000000     beta(Y;Z,Z) = beta(Z,Z,Y)
@ B-freq = 0.000000  C-freq = 0.000000     beta(X;Z,Z) =     21.78048663
@ B-freq = 0.000000  C-freq = 0.000000     beta(Y;Z,Z) =     41.73633853
@ B-freq = 0.000000  C-freq = 0.000000     beta(Z;Z,Z) =     -0.00000000
@ B-freq = 0.006345  C-freq = 0.000000     beta(X;Z,Z) =     21.79905860
@ B-freq = 0.006345  C-freq = 0.000000     beta(Y;Z,Z) =     41.77458659
@ B-freq = 0.006345  C-freq = 0.000000     beta(Z;Z,Z) =     -0.00000000
@ B-freq = 0.012689  C-freq = 0.000000     beta(X;Z,Z) =     21.85487952
@ B-freq = 0.012689  C-freq = 0.000000     beta(Y;Z,Z) =     41.88951994
@ B-freq = 0.012689  C-freq = 0.000000     beta(Z;Z,Z) =     -0.00000000
@ B-freq = 0.019034  C-freq = 0.000000     beta(X;Z,Z) =     21.94825828
@ B-freq = 0.019034  C-freq = 0.000000     beta(Y;Z,Z) =     42.08168628
@ B-freq = 0.019034  C-freq = 0.000000     beta(Z;Z,Z) =     -0.00000000
@ B-freq = 0.025378  C-freq = 0.000000     beta(X;Z,Z) =     22.07968683
@ B-freq = 0.025378  C-freq = 0.000000     beta(Y;Z,Z) =     42.35192528
@ B-freq = 0.025378  C-freq = 0.000000     beta(Z;Z,Z) =     -0.00000000
@ B-freq = 0.000000  C-freq = 0.006345     beta(X;X,Z) = beta(X,Z,X)
@ B-freq = 0.000000  C-freq = 0.006345     beta(Y;X,Z) = beta(Y,Z,X)
@ B-freq = 0.000000  C-freq = 0.006345     beta(Z;X,Z) = beta(Z,Z,X)
@ B-freq = 0.006345  C-freq = 0.006345     beta(X;X,Z) = beta(X,Z,X)
@ B-freq = 0.006345  C-freq = 0.006345     beta(Y;X,Z) = beta(Y,Z,X)
@ B-freq = 0.006345  C-freq = 0.006345     beta(Z;X,Z) = beta(Z,Z,X)
@ B-freq = 0.012689  C-freq = 0.006345     beta(X;X,Z) = beta(X,Z,X)
@ B-freq = 0.012689  C-freq = 0.006345     beta(Y;X,Z) = beta(Y,Z,X)
@ B-freq = 0.012689  C-freq = 0.006345     beta(Z;X,Z) = beta(Z,Z,X)
@ B-freq = 0.019034  C-freq = 0.006345     beta(X;X,Z) = beta(X,Z,X)
@ B-freq = 0.019034  C-freq = 0.006345     beta(Y;X,Z) = beta(Y,Z,X)
@ B-freq = 0.019034  C-freq = 0.006345     beta(Z;X,Z) = beta(Z,Z,X)
@ B-freq = 0.025378  C-freq = 0.006345     beta(X;X,Z) = beta(X,Z,X)
@ B-freq = 0.025378  C-freq = 0.006345     beta(Y;X,Z) = beta(Y,Z,X)
@ B-freq = 0.025378  C-freq = 0.006345     beta(Z;X,Z) = beta(Z,Z,X)
@ B-freq = 0.000000  C-freq = 0.006345     beta(X;Y,Z) = beta(X,Z,Y)
@ B-freq = 0.000000  C-freq = 0.006345     beta(Y;Y,Z) = beta(Y,Z,Y)
@ B-freq = 0.000000  C-freq = 0.006345     beta(Z;Y,Z) = beta(Z,Z,Y)
@ B-freq = 0.006345  C-freq = 0.006345     beta(X;Y,Z) = beta(X,Z,Y)
@ B-freq = 0.006345  C-freq = 0.006345     beta(Y;Y,Z) = beta(Y,Z,Y)
@ B-freq = 0.006345  C-freq = 0.006345     beta(Z;Y,Z) = beta(Z,Z,Y)
@ B-freq = 0.012689  C-freq = 0.006345     beta(X;Y,Z) = beta(X,Z,Y)
@ B-freq = 0.012689  C-freq = 0.006345     beta(Y;Y,Z) = beta(Y,Z,Y)
@ B-freq = 0.012689  C-freq = 0.006345     beta(Z;Y,Z) = beta(Z,Z,Y)
@ B-freq = 0.019034  C-freq = 0.006345     beta(X;Y,Z) = beta(X,Z,Y)
@ B-freq = 0.019034  C-freq = 0.006345     beta(Y;Y,Z) = beta(Y,Z,Y)
@ B-freq = 0.019034  C-freq = 0.006345     beta(Z;Y,Z) = beta(Z,Z,Y)
@ B-freq = 0.025378  C-freq = 0.006345     beta(X;Y,Z) = beta(X,Z,Y)
@ B-freq = 0.025378  C-freq = 0.006345     beta(Y;Y,Z) = beta(Y,Z,Y)
@ B-freq = 0.025378  C-freq = 0.006345     beta(Z;Y,Z) = beta(Z,Z,Y)
@ B-freq = 0.000000  C-freq = 0.006345     beta(X;Z,Z) = beta(X,Z,Z)
@ B-freq = 0.000000  C-freq = 0.006345     beta(Y;Z,Z) = beta(Y,Z,Z)
@ B-freq = 0.000000  C-freq = 0.006345     beta(Z;Z,Z) = beta(Z,Z,Z)
@ B-freq = 0.006345  C-freq = 0.006345     beta(X;Z,Z) =     21.84914326
@ B-freq = 0.006345  C-freq = 0.006345     beta(Y;Z,Z) =     41.87974212
@ B-freq = 0.006345  C-freq = 0.006345     beta(Z;Z,Z) =     -0.00000000
@ B-freq = 0.012689  C-freq = 0.006345     beta(X;Z,Z) =     21.93693590
@ B-freq = 0.012689  C-freq = 0.006345     beta(Y;Z,Z) =     42.06262010
@ B-freq = 0.012689  C-freq = 0.006345     beta(Z;Z,Z) =     -0.00000000
@ B-freq = 0.019034  C-freq = 0.006345     beta(X;Z,Z) =     22.06307561
@ B-freq = 0.019034  C-freq = 0.006345     beta(Y;Z,Z) =     42.32450996
@ B-freq = 0.019034  C-freq = 0.006345     beta(Z;Z,Z) =     -0.00000000
@ B-freq = 0.025378  C-freq = 0.006345     beta(X;Z,Z) =     22.22840484
@ B-freq = 0.025378  C-freq = 0.006345     beta(Y;Z,Z) =     42.66703732
@ B-freq = 0.025378  C-freq = 0.006345     beta(Z;Z,Z) =     -0.00000000
@ B-freq = 0.000000  C-freq = 0.012689     beta(X;X,Z) = beta(X,Z,X)
@ B-freq = 0.000000  C-freq = 0.012689     beta(Y;X,Z) = beta(Y,Z,X)
@ B-freq = 0.000000  C-freq = 0.012689     beta(Z;X,Z) = beta(Z,Z,X)
@ B-freq = 0.006345  C-freq = 0.012689     beta(X;X,Z) = beta(X,Z,X)
@ B-freq = 0.006345  C-freq = 0.012689     beta(Y;X,Z) = beta(Y,Z,X)
@ B-freq = 0.006345  C-freq = 0.012689     beta(Z;X,Z) = beta(Z,Z,X)
@ B-freq = 0.012689  C-freq = 0.012689     beta(X;X,Z) = beta(X,Z,X)
@ B-freq = 0.012689  C-freq = 0.012689     beta(Y;X,Z) = beta(Y,Z,X)
@ B-freq = 0.012689  C-freq = 0.012689     beta(Z;X,Z) = beta(Z,Z,X)
@ B-freq = 0.019034  C-freq = 0.012689     beta(X;X,Z) = beta(X,Z,X)
@ B-freq = 0.019034  C-freq = 0.012689     beta(Y;X,Z) = beta(Y,Z,X)
@ B-freq = 0.019034  C-freq = 0.012689     beta(Z;X,Z) = beta(Z,Z,X)
@ B-freq = 0.025378  C-freq = 0.012689     beta(X;X,Z) = beta(X,Z,X)
@ B-freq = 0.025378  C-freq = 0.012689     beta(Y;X,Z) = beta(Y,Z,X)
@ B-freq = 0.025378  C-freq = 0.012689     beta(Z;X,Z) = beta(Z,Z,X)
@ B-freq = 0.000000  C-freq = 0.012689     beta(X;Y,Z) = beta(X,Z,Y)
@ B-freq = 0.000000  C-freq = 0.012689     beta(Y;Y,Z) = beta(Y,Z,Y)
@ B-freq = 0.000000  C-freq = 0.012689     beta(Z;Y,Z) = beta(Z,Z,Y)
@ B-freq = 0.006345  C-freq = 0.012689     beta(X;Y,Z) = beta(X,Z,Y)
@ B-freq = 0.006345  C-freq = 0.012689     beta(Y;Y,Z) = beta(Y,Z,Y)
@ B-freq = 0.006345  C-freq = 0.012689     beta(Z;Y,Z) = beta(Z,Z,Y)
@ B-freq = 0.012689  C-freq = 0.012689     beta(X;Y,Z) = beta(X,Z,Y)
@ B-freq = 0.012689  C-freq = 0.012689     beta(Y;Y,Z) = beta(Y,Z,Y)
@ B-freq = 0.012689  C-freq = 0.012689     beta(Z;Y,Z) = beta(Z,Z,Y)
@ B-freq = 0.019034  C-freq = 0.012689     beta(X;Y,Z) = beta(X,Z,Y)
@ B-freq = 0.019034  C-freq = 0.012689     beta(Y;Y,Z) = beta(Y,Z,Y)
@ B-freq = 0.019034  C-freq = 0.012689     beta(Z;Y,Z) = beta(Z,Z,Y)
@ B-freq = 0.025378  C-freq = 0.012689     beta(X;Y,Z) = beta(X,Z,Y)
@ B-freq = 0.025378  C-freq = 0.012689     beta(Y;Y,Z) = beta(Y,Z,Y)
@ B-freq = 0.025378  C-freq = 0.012689     beta(Z;Y,Z) = beta(Z,Z,Y)
@ B-freq = 0.000000  C-freq = 0.012689     beta(X;Z,Z) = beta(X,Z,Z)
@ B-freq = 0.000000  C-freq = 0.012689     beta(Y;Z,Z) = beta(Y,Z,Z)
@ B-freq = 0.000000  C-freq = 0.012689     beta(Z;Z,Z) = beta(Z,Z,Z)
@ B-freq = 0.006345  C-freq = 0.012689     beta(X;Z,Z) = beta(X,Z,Z)
@ B-freq = 0.006345  C-freq = 0.012689     beta(Y;Z,Z) = beta(Y,Z,Z)
@ B-freq = 0.006345  C-freq = 0.012689     beta(Z;Z,Z) = beta(Z,Z,Z)
@ B-freq = 0.012689  C-freq = 0.012689     beta(X;Z,Z) =     22.05745407
@ B-freq = 0.012689  C-freq = 0.012689     beta(Y;Z,Z) =     42.31515555
@ B-freq = 0.012689  C-freq = 0.012689     beta(Z;Z,Z) =     -0.00000000
@ B-freq = 0.019034  C-freq = 0.012689     beta(X;Z,Z) =     22.21742149
@ B-freq = 0.019034  C-freq = 0.012689     beta(Y;Z,Z) =     42.64920071
@ B-freq = 0.019034  C-freq = 0.012689     beta(Z;Z,Z) =     -0.00000000
@ B-freq = 0.025378  C-freq = 0.012689     beta(X;Z,Z) =     22.41805723
@ B-freq = 0.025378  C-freq = 0.012689     beta(Y;Z,Z) =     43.06722937
@ B-freq = 0.025378  C-freq = 0.012689     beta(Z;Z,Z) =     -0.00000000
@ B-freq = 0.000000  C-freq = 0.019034     beta(X;X,Z) = beta(X,Z,X)
@ B-freq = 0.000000  C-freq = 0.019034     beta(Y;X,Z) = beta(Y,Z,X)
@ B-freq = 0.000000  C-freq = 0.019034     beta(Z;X,Z) = beta(Z,Z,X)
@ B-freq = 0.006345  C-freq = 0.019034     beta(X;X,Z) = beta(X,Z,X)
@ B-freq = 0.006345  C-freq = 0.019034     beta(Y;X,Z) = beta(Y,Z,X)
@ B-freq = 0.006345  C-freq = 0.019034     beta(Z;X,Z) = beta(Z,Z,X)
@ B-freq = 0.012689  C-freq = 0.019034     beta(X;X,Z) = beta(X,Z,X)
@ B-freq = 0.012689  C-freq = 0.019034     beta(Y;X,Z) = beta(Y,Z,X)
@ B-freq = 0.012689  C-freq = 0.019034     beta(Z;X,Z) = beta(Z,Z,X)
@ B-freq = 0.019034  C-freq = 0.019034     beta(X;X,Z) = beta(X,Z,X)
@ B-freq = 0.019034  C-freq = 0.019034     beta(Y;X,Z) = beta(Y,Z,X)
@ B-freq = 0.019034  C-freq = 0.019034     beta(Z;X,Z) = beta(Z,Z,X)
@ B-freq = 0.025378  C-freq = 0.019034     beta(X;X,Z) = beta(X,Z,X)
@ B-freq = 0.025378  C-freq = 0.019034     beta(Y;X,Z) = beta(Y,Z,X)
@ B-freq = 0.025378  C-freq = 0.019034     beta(Z;X,Z) = beta(Z,Z,X)
@ B-freq = 0.000000  C-freq = 0.019034     beta(X;Y,Z) = beta(X,Z,Y)
@ B-freq = 0.000000  C-freq = 0.019034     beta(Y;Y,Z) = beta(Y,Z,Y)
@ B-freq = 0.000000  C-freq = 0.019034     beta(Z;Y,Z) = beta(Z,Z,Y)
@ B-freq = 0.006345  C-freq = 0.019034     beta(X;Y,Z) = beta(X,Z,Y)
@ B-freq = 0.006345  C-freq = 0.019034     beta(Y;Y,Z) = beta(Y,Z,Y)
@ B-freq = 0.006345  C-freq = 0.019034     beta(Z;Y,Z) = beta(Z,Z,Y)
@ B-freq = 0.012689  C-freq = 0.019034     beta(X;Y,Z) = beta(X,Z,Y)
@ B-freq = 0.012689  C-freq = 0.019034     beta(Y;Y,Z) = beta(Y,Z,Y)
@ B-freq = 0.012689  C-freq = 0.019034     beta(Z;Y,Z) = beta(Z,Z,Y)
@ B-freq = 0.019034  C-freq = 0.019034     beta(X;Y,Z) = beta(X,Z,Y)
@ B-freq = 0.019034  C-freq = 0.019034     beta(Y;Y,Z) = beta(Y,Z,Y)
@ B-freq = 0.019034  C-freq = 0.019034     beta(Z;Y,Z) = beta(Z,Z,Y)
@ B-freq = 0.025378  C-freq = 0.019034     beta(X;Y,Z) = beta(X,Z,Y)
@ B-freq = 0.025378  C-freq = 0.019034     beta(Y;Y,Z) = beta(Y,Z,Y)
@ B-freq = 0.025378  C-freq = 0.019034     beta(Z;Y,Z) = beta(Z,Z,Y)
@ B-freq = 0.000000  C-freq = 0.019034     beta(X;Z,Z) = beta(X,Z,Z)
@ B-freq = 0.000000  C-freq = 0.019034     beta(Y;Z,Z) = beta(Y,Z,Z)
@ B-freq = 0.000000  C-freq = 0.019034     beta(Z;Z,Z) = beta(Z,Z,Z)
@ B-freq = 0.006345  C-freq = 0.019034     beta(X;Z,Z) = beta(X,Z,Z)
@ B-freq = 0.006345  C-freq = 0.019034     beta(Y;Z,Z) = beta(Y,Z,Z)
@ B-freq = 0.006345  C-freq = 0.019034     beta(Z;Z,Z) = beta(Z,Z,Z)
@ B-freq = 0.012689  C-freq = 0.019034     beta(X;Z,Z) = beta(X,Z,Z)
@ B-freq = 0.012689  C-freq = 0.019034     beta(Y;Z,Z) = beta(Y,Z,Z)
@ B-freq = 0.012689  C-freq = 0.019034     beta(Z;Z,Z) = beta(Z,Z,Z)
@ B-freq = 0.019034  C-freq = 0.019034     beta(X;Z,Z) =     22.41265895
@ B-freq = 0.019034  C-freq = 0.019034     beta(Y;Z,Z) =     43.05868324
@ B-freq = 0.019034  C-freq = 0.019034     beta(Z;Z,Z) =     -0.00000000
@ B-freq = 0.025378  C-freq = 0.019034     beta(X;Z,Z) =     22.65042042
@ B-freq = 0.025378  C-freq = 0.019034     beta(Y;Z,Z) =     43.55636732
@ B-freq = 0.025378  C-freq = 0.019034     beta(Z;Z,Z) =     -0.00000000
@ B-freq = 0.000000  C-freq = 0.025378     beta(X;X,Z) = beta(X,Z,X)
@ B-freq = 0.000000  C-freq = 0.025378     beta(Y;X,Z) = beta(Y,Z,X)
@ B-freq = 0.000000  C-freq = 0.025378     beta(Z;X,Z) = beta(Z,Z,X)
@ B-freq = 0.006345  C-freq = 0.025378     beta(X;X,Z) = beta(X,Z,X)
@ B-freq = 0.006345  C-freq = 0.025378     beta(Y;X,Z) = beta(Y,Z,X)
@ B-freq = 0.006345  C-freq = 0.025378     beta(Z;X,Z) = beta(Z,Z,X)
@ B-freq = 0.012689  C-freq = 0.025378     beta(X;X,Z) = beta(X,Z,X)
@ B-freq = 0.012689  C-freq = 0.025378     beta(Y;X,Z) = beta(Y,Z,X)
@ B-freq = 0.012689  C-freq = 0.025378     beta(Z;X,Z) = beta(Z,Z,X)
@ B-freq = 0.019034  C-freq = 0.025378     beta(X;X,Z) = beta(X,Z,X)
@ B-freq = 0.019034  C-freq = 0.025378     beta(Y;X,Z) = beta(Y,Z,X)
@ B-freq = 0.019034  C-freq = 0.025378     beta(Z;X,Z) = beta(Z,Z,X)
@ B-freq = 0.025378  C-freq = 0.025378     beta(X;X,Z) = beta(X,Z,X)
@ B-freq = 0.025378  C-freq = 0.025378     beta(Y;X,Z) = beta(Y,Z,X)
@ B-freq = 0.025378  C-freq = 0.025378     beta(Z;X,Z) = beta(Z,Z,X)
@ B-freq = 0.000000  C-freq = 0.025378     beta(X;Y,Z) = beta(X,Z,Y)
@ B-freq = 0.000000  C-freq = 0.025378     beta(Y;Y,Z) = beta(Y,Z,Y)
@ B-freq = 0.000000  C-freq = 0.025378     beta(Z;Y,Z) = beta(Z,Z,Y)
@ B-freq = 0.006345  C-freq = 0.025378     beta(X;Y,Z) = beta(X,Z,Y)
@ B-freq = 0.006345  C-freq = 0.025378     beta(Y;Y,Z) = beta(Y,Z,Y)
@ B-freq = 0.006345  C-freq = 0.025378     beta(Z;Y,Z) = beta(Z,Z,Y)
@ B-freq = 0.012689  C-freq = 0.025378     beta(X;Y,Z) = beta(X,Z,Y)
@ B-freq = 0.012689  C-freq = 0.025378     beta(Y;Y,Z) = beta(Y,Z,Y)
@ B-freq = 0.012689  C-freq = 0.025378     beta(Z;Y,Z) = beta(Z,Z,Y)
@ B-freq = 0.019034  C-freq = 0.025378     beta(X;Y,Z) = beta(X,Z,Y)
@ B-freq = 0.019034  C-freq = 0.025378     beta(Y;Y,Z) = beta(Y,Z,Y)
@ B-freq = 0.019034  C-freq = 0.025378     beta(Z;Y,Z) = beta(Z,Z,Y)
@ B-freq = 0.025378  C-freq = 0.025378     beta(X;Y,Z) = beta(X,Z,Y)
@ B-freq = 0.025378  C-freq = 0.025378     beta(Y;Y,Z) = beta(Y,Z,Y)
@ B-freq = 0.025378  C-freq = 0.025378     beta(Z;Y,Z) = beta(Z,Z,Y)
@ B-freq = 0.000000  C-freq = 0.025378     beta(X;Z,Z) = beta(X,Z,Z)
@ B-freq = 0.000000  C-freq = 0.025378     beta(Y;Z,Z) = beta(Y,Z,Z)
@ B-freq = 0.000000  C-freq = 0.025378     beta(Z;Z,Z) = beta(Z,Z,Z)
@ B-freq = 0.006345  C-freq = 0.025378     beta(X;Z,Z) = beta(X,Z,Z)
@ B-freq = 0.006345  C-freq = 0.025378     beta(Y;Z,Z) = beta(Y,Z,Z)
@ B-freq = 0.006345  C-freq = 0.025378     beta(Z;Z,Z) = beta(Z,Z,Z)
@ B-freq = 0.012689  C-freq = 0.025378     beta(X;Z,Z) = beta(X,Z,Z)
@ B-freq = 0.012689  C-freq = 0.025378     beta(Y;Z,Z) = beta(Y,Z,Z)
@ B-freq = 0.012689  C-freq = 0.025378     beta(Z;Z,Z) = beta(Z,Z,Z)
@ B-freq = 0.019034  C-freq = 0.025378     beta(X;Z,Z) = beta(X,Z,Z)
@ B-freq = 0.019034  C-freq = 0.025378     beta(Y;Z,Z) = beta(Y,Z,Z)
@ B-freq = 0.019034  C-freq = 0.025378     beta(Z;Z,Z) = beta(Z,Z,Z)
@ B-freq = 0.025378  C-freq = 0.025378     beta(X;Z,Z) =     22.92758951
@ B-freq = 0.025378  C-freq = 0.025378     beta(Y;Z,Z) =     44.13891536
@ B-freq = 0.025378  C-freq = 0.025378     beta(Z;Z,Z) =     -0.00000000

  Total CPU  time used in RESPONSE:   2 hours 27 minutes 54 seconds
  Total wall time used in RESPONSE:   2 hours 28 minutes 26 seconds


                   .-------------------------------------------.
                   | End of Dynamic Property Section (RESPONS) |
                   `-------------------------------------------'

  Total CPU  time used in DALTON:   2 hours 37 minutes 34 seconds
  Total wall time used in DALTON:   2 hours 38 minutes  9 seconds

 
     Date and time (Linux)  : Thu Sep 14 01:11:01 2023
     Host name              : sn-mem                                  
