

     ************************************************************************
     *************** Dalton - An Electronic Structure Program ***************
     ************************************************************************

    This is output from DALTON release Dalton2020.0 (2020)
         ( Web site: http://daltonprogram.org )

   ----------------------------------------------------------------------------

    NOTE:
     
    Dalton is an experimental code for the evaluation of molecular
    properties using (MC)SCF, DFT, CI, and CC wave functions.
    The authors accept no responsibility for the performance of
    the code or for the correctness of the results.
     
    The code (in whole or part) is provided under a licence and
    is not to be reproduced for further distribution without
    the written permission of the authors or their representatives.
     
    See the home page "http://daltonprogram.org" for further information.
     
    If results obtained with this code are published,
    the appropriate citations would be both of:
     
       K. Aidas, C. Angeli, K. L. Bak, V. Bakken, R. Bast,
       L. Boman, O. Christiansen, R. Cimiraglia, S. Coriani,
       P. Dahle, E. K. Dalskov, U. Ekstroem,
       T. Enevoldsen, J. J. Eriksen, P. Ettenhuber, B. Fernandez,
       L. Ferrighi, H. Fliegl, L. Frediani, K. Hald, A. Halkier,
       C. Haettig, H. Heiberg, T. Helgaker, A. C. Hennum,
       H. Hettema, E. Hjertenaes, S. Hoest, I.-M. Hoeyvik,
       M. F. Iozzi, B. Jansik, H. J. Aa. Jensen, D. Jonsson,
       P. Joergensen, J. Kauczor, S. Kirpekar,
       T. Kjaergaard, W. Klopper, S. Knecht, R. Kobayashi, H. Koch,
       J. Kongsted, A. Krapp, K. Kristensen, A. Ligabue,
       O. B. Lutnaes, J. I. Melo, K. V. Mikkelsen, R. H. Myhre,
       C. Neiss, C. B. Nielsen, P. Norman, J. Olsen,
       J. M. H. Olsen, A. Osted, M. J. Packer, F. Pawlowski,
       T. B. Pedersen, P. F. Provasi, S. Reine, Z. Rinkevicius,
       T. A. Ruden, K. Ruud, V. Rybkin, P. Salek, C. C. M. Samson,
       A. Sanchez de Meras, T. Saue, S. P. A. Sauer,
       B. Schimmelpfennig, K. Sneskov, A. H. Steindal,
       K. O. Sylvester-Hvid, P. R. Taylor, A. M. Teale,
       E. I. Tellgren, D. P. Tew, A. J. Thorvaldsen, L. Thoegersen,
       O. Vahtras, M. A. Watson, D. J. D. Wilson, M. Ziolkowski
       and H. Agren,
       "The Dalton quantum chemistry program system",
       WIREs Comput. Mol. Sci. 2014, 4:269–284 (doi: 10.1002/wcms.1172)
     
    and
     
       Dalton, a molecular electronic structure program,
       Release Dalton2020.0 (2020), see http://daltonprogram.org
   ----------------------------------------------------------------------------

    Authors in alphabetical order (Major contribution(s) in parenthesis):

  Kestutis Aidas,           Vilnius University,           Lithuania   (QM/MM)
  Celestino Angeli,         University of Ferrara,        Italy       (NEVPT2)
  Keld L. Bak,              UNI-C,                        Denmark     (AOSOPPA, non-adiabatic coupling, magnetic properties)
  Vebjoern Bakken,          University of Oslo,           Norway      (DALTON; geometry optimizer, symmetry detection)
  Radovan Bast,             UiT The Arctic U. of Norway,  Norway      (DALTON installation and execution frameworks)
  Pablo Baudin,             University of Valencia,       Spain       (Cholesky excitation energies)
  Linus Boman,              NTNU,                         Norway      (Cholesky decomposition and subsystems)
  Bruno N. Cabral Tenorio,  Technical Univ. of Denmark,   Denmark     (Lanczos-based CC methods)
  Ove Christiansen,         Aarhus University,            Denmark     (CC module)
  Renzo Cimiraglia,         University of Ferrara,        Italy       (NEVPT2)
  Sonia Coriani,            Technical Univ. of Denmark,   Denmark     (CC and RESPONS modules)
  Janusz Cukras,            University of Warsaw,         Poland      (MChD in RESPONS)
  Paal Dahle,               University of Oslo,           Norway      (Parallelization)
  Erik K. Dalskov,          UNI-C,                        Denmark     (SOPPA)
  Thomas Enevoldsen,        Univ. of Southern Denmark,    Denmark     (SOPPA)
  Janus J. Eriksen,         Aarhus University,            Denmark     (Polarizable embedding, TDA)
  Rasmus Faber,             Technical Univ. of Denmark,   Denmark     (Vib.avg. NMR w. SOPPA, parallel AO-SOPPA, CVS-CC and EOMCC)
  Tobias Fahleson,          KTH Stockholm,                Sweden      (Damped cubic response)
  Berta Fernandez,          U. of Santiago de Compostela, Spain       (Doublet spin, ESR in RESPONS)
  Lara Ferrighi,            Aarhus University,            Denmark     (PCM Cubic response)
  Heike Fliegl,             University of Oslo,           Norway      (CCSD(R12))
  Luca Frediani,            UiT The Arctic U. of Norway,  Norway      (PCM)
  Emmanuel Fromager,        Univ. Strasbourg,             France      (MC-srDFT)
  Bin Gao,                  UiT The Arctic U. of Norway,  Norway      (Gen1Int library)
  Andre S. P. Gomes,        CNRS/Universite de Lille,     France      (Frozen density embedding)
  Christof Haettig,         Ruhr-University Bochum,       Germany     (CC module)
  Kasper Hald,              Aarhus University,            Denmark     (CC module)
  Asger Halkier,            Aarhus University,            Denmark     (CC module)
  Frederik Beyer Hansen,    University of Copenhagen,     Denmark     (Parallel AO-SOPPA)
  Erik D. Hedegaard,        Univ. of Southern Denmark,    Denmark     (Polarizable embedding, QM/MM, and MC-srDFT)
  Hanne Heiberg,            University of Oslo,           Norway      (Geometry analysis, selected one-electron integrals)
  Trygve Helgaker,          University of Oslo,           Norway      (DALTON; ABACUS, ERI, DFT modules, London, and much more)
  Alf Christian Hennum,     University of Oslo,           Norway      (Parity violation)
  Hinne Hettema,            University of Auckland,       New Zealand (Quadratic response in RESPONS; SIRIUS supersymmetry)
  Eirik Hjertenaes,         NTNU,                         Norway      (Cholesky decomposition)
  Pi A. B. Haase,           University of Copenhagen,     Denmark     (Triplet AO-SOPPA)
  Maria Francesca Iozzi,    University of Oslo,           Norway      (RPA)
  Christoph Jacob           TU Braunschweig               Germany     (Frozen density embedding)
  Brano Jansik              Technical Univ. of Ostrava    Czech Rep.  (DFT cubic response)
  Hans Joergen Aa. Jensen,  Univ. of Southern Denmark,    Denmark     (DALTON; SIRIUS, RESPONS, ABACUS, MC-srDFT, and much more)
  Dan Jonsson,              UiT The Arctic U. of Norway,  Norway      (Cubic response in RESPONS module)
  Poul Joergensen,          Aarhus University,            Denmark     (RESPONS, ABACUS, and CC modules)
  Maciej Kaminski,          University of Warsaw,         Poland      (CPPh in RESPONS)
  Joanna Kauczor,           Linkoeping University,        Sweden      (Complex polarization propagator (CPP) module)
  Sheela Kirpekar,          Univ. of Southern Denmark,    Denmark     (Mass-velocity & Darwin integrals)
  Erik Kjellgren,           Univ. of Southern Denmark,    Denmark     (MC-srDFT)
  Wim Klopper,              KIT Karlsruhe,                Germany     (R12 code in CC, SIRIUS, and ABACUS modules)
  Stefan Knecht,            ETH Zurich,                   Switzerland (Parallel CI and MCSCF, MC-srDFT)
  Rika Kobayashi,           Australian National Univ.,    Australia   (DIIS in CC, London in MCSCF)
  Henrik Koch,              NTNU,                         Norway      (CC module, Cholesky decomposition)
  Jacob Kongsted,           Univ. of Southern Denmark,    Denmark     (Polarizable embedding, polarizable density embedding, QM/MM)
  Andrea Ligabue,           University of Modena,         Italy       (CTOCD, AOSOPPA)
  Nanna H. List             Univ. of Southern Denmark,    Denmark     (Polarizable embedding)
  Ola B. Lutnaes,           University of Oslo,           Norway      (DFT Hessian)
  Juan I. Melo,             University of Buenos Aires,   Argentina   (LRESC, Relativistic Effects on NMR Shieldings)
  Kurt V. Mikkelsen,        University of Copenhagen,     Denmark     (MC-SCRF and QM/MM)
  Rolf H. Myhre,            NTNU,                         Norway      (Subsystems and CC3)
  Christian Neiss,          Univ. Erlangen-Nuernberg,     Germany     (CCSD(R12))
  Christian B. Nielsen,     University of Copenhagen,     Denmark     (QM/MM)
  Patrick Norman,           KTH Stockholm,                Sweden      (Cubic response and complex frequency response in RESPONS)
  Jeppe Olsen,              Aarhus University,            Denmark     (SIRIUS CI/density modules)
  Jogvan Magnus H. Olsen,   Aarhus University,            Denmark     (Polarizable embedding and polarizable density embedding)
  Anders Osted,             Copenhagen University,        Denmark     (QM/MM)
  Martin J. Packer,         University of Sheffield,      UK          (SOPPA)
  Filip Pawlowski,          Kazimierz Wielki University,  Poland      (CC3)
  Morten N. Pedersen,       Univ. of Southern Denmark,    Denmark     (Polarizable embedding)
  Thomas B. Pedersen,       University of Oslo,           Norway      (Cholesky decomposition)
  Patricio F. Provasi,      University of Northeastern,   Argentina   (Analysis of coupling constants in localized orbitals)
  Peter Reinholdt,          Univ. of Southern Denmark,    Denmark     (Polarizable embedding and polarizable density embedding)
  Zilvinas Rinkevicius,     KTH Stockholm,                Sweden      (open-shell DFT, ESR)
  Elias Rudberg,            KTH Stockholm,                Sweden      (DFT grid and basis info)
  Torgeir A. Ruden,         University of Oslo,           Norway      (Numerical derivatives in ABACUS)
  Kenneth Ruud,             UiT The Arctic U. of Norway,  Norway      (DALTON; ABACUS magnetic properties and much more)
  Pawel Salek,              KTH Stockholm,                Sweden      (DALTON; DFT code)
  Claire C. M. Samson       University of Karlsruhe       Germany     (Boys localization, r12 integrals in ERI)
  Alfredo Sanchez de Meras, University of Valencia,       Spain       (CC module, Cholesky decomposition)
  Trond Saue,               Paul Sabatier University,     France      (direct Fock matrix construction)
  Stephan P. A. Sauer,      University of Copenhagen,     Denmark     (SOPPA(CCSD), SOPPA prop., AOSOPPA, vibrational g-factors)
  Bernd Schimmelpfennig,    Forschungszentrum Karlsruhe,  Germany     (AMFI module)
  Anna K. Schnack-Petersen, University of Copenhagen,     Denmark     (RPA(D) and HRPA(D) properties in AOSOPPA)
  Kristian Sneskov,         Aarhus University,            Denmark     (Polarizable embedding, QM/MM)
  Arnfinn H. Steindal,      UiT The Arctic U. of Norway,  Norway      (parallel QM/MM, polarizable embedding)
  Casper Steinmann,         Aalborg University,           Denmark     (QFIT, polarizable embedding)
  K. O. Sylvester-Hvid,     University of Copenhagen,     Denmark     (MC-SCRF)
  Peter R. Taylor,          VLSCI/Univ. of Melbourne,     Australia   (Symmetry handling ABACUS, integral transformation)
  Andrew M. Teale,          University of Nottingham,     England     (DFT-AC, DFT-D)
  David P. Tew,             University of Bristol,        England     (CCSD(R12))
  Julien Toulouse,          Sorbonne Univ.,               France      (MC-srDFT)
  Olav Vahtras,             KTH Stockholm,                Sweden      (Triplet response, spin-orbit, ESR, TDDFT, open-shell DFT)
  Lucas Visscher,           Vrije Universiteit Amsterdam, Netherlands (Frozen density embedding)
  David J. Wilson,          La Trobe University,          Australia   (DFT Hessian and DFT magnetizabilities)
  Hans Agren,               KTH Stockholm,                Sweden      (SIRIUS module, RESPONS, MC-SCRF solvation)
 --------------------------------------------------------------------------------

     Date and time (Linux)  : Fri Sep 29 10:41:10 2023
     Host name              : sn-mem                                  

 * Work memory size             :    64000000 =  488.28 megabytes.

 * Directories for basis set searches:
   1) /gpfs/projects/rjh/adrian/august_no_symmetry/dalton/hf/PH3/dipole
   2) /gpfs/projects/rjh/adrian/dalton/build/basis


Compilation information
-----------------------

 Who compiled             | ahurtado
 Host                     | sn-mem
 System                   | Linux-3.10.0-1160.24.1.el7.x86_64
 CMake generator          | Unix Makefiles
 Processor                | x86_64
 64-bit integers          | OFF
 MPI                      | ON
 Fortran compiler         | /gpfs/software/intel/oneAPI/2021_4/mpi/2021.4.0/bi
                          | n/mpif90
 Fortran compiler version | GNU Fortran (GCC) 11.2.0
 C compiler               | /gpfs/software/intel/oneAPI/2021_4/mpi/2021.4.0/bi
                          | n/mpicc
 C compiler version       | gcc (GCC) 11.2.0
 C++ compiler             | /gpfs/software/intel/oneAPI/2021_4/mpi/2021.4.0/bi
                          | n/mpicxx
 C++ compiler version     | unknown
 BLAS                     | /gpfs/software/intel/oneAPI/2021_4/mkl/2021.4.0/li
                          | b/intel64/libmkl_gf_lp64.so;/gpfs/software/intel/o
                          | neAPI/2021_4/mkl/2021.4.0/lib/intel64/libmkl_seque
                          | ntial.so;/gpfs/software/intel/oneAPI/2021_4/mkl/20
                          | 21.4.0/lib/intel64/libmkl_core.so;/usr/lib64/libpt
                          | hread.so;/usr/lib64/libm.so
 LAPACK                   | /gpfs/software/intel/oneAPI/2021_4/mkl/2021.4.0/li
                          | b/intel64/libmkl_lapack95_lp64.a;/gpfs/software/in
                          | tel/oneAPI/2021_4/mkl/2021.4.0/lib/intel64/libmkl_
                          | gf_lp64.so
 Static linking           | OFF
 Last Git revision        | 66052b3af5ea7225e31178bf9a8b031913c72190
 Git branch               | (HEAD detached at Dalton2020.0)
 Configuration time       | 2023-01-11 13:33:37.731835

 * MPI parallel run using 5 processes.


   Content of the .dal input file
 ----------------------------------

**DALTON INPUT
.RUN RESPONSE
.DIRECT
**WAVE FUNCTIONS
.HF
**PROPERTIES
**RESPONSE
*QUADRA
.DIPLEN
.FREQUENCIES
5
0.0 0.0164705 0.032941 0.0494115 0.065882
**END OF DALTON INPUT


   Content of the .mol file
 ----------------------------

BASIS
d-aug-cc-pCVDZ
blah
blah
Atomtype=2 Angstrom Charge=0 Nosymmmetry
Charge=15 Atoms=1
P_a 0.000000000000 0.000000000000 0.000000000000
Charge=1 Atoms=3
H_a 0.000000000000 -1.193199998467 -0.771699999462
H_b 1.033300002415 0.596600001880 -0.771699999462
H_c -1.033300002415 0.596600001880 -0.771699999462


       *******************************************************************
       *********** Output from DALTON general input processing ***********
       *******************************************************************

 --------------------------------------------------------------------------------
   Overall default print level:    0
   Print level for DALTON.STAT:    1

    Parallel calculation using MPI
    AO-direct calculation (in sections where implemented)
    HERMIT 1- and 2-electron integral sections will be executed
    "Old" integral transformation used (limited to max 255 basis functions)
    Wave function sections will be executed (SIRIUS module)
    Dynamic molecular response properties section will be executed (RESPONSE module)
 --------------------------------------------------------------------------------


   ****************************************************************************
   *************** Output of molecule and basis set information ***************
   ****************************************************************************


    The two title cards from your ".mol" input:
    ------------------------------------------------------------------------
 1: blah                                                                    
 2: blah                                                                    
    ------------------------------------------------------------------------

  Coordinates are entered in Angstrom and converted to atomic units.
          - Conversion factor : 1 bohr = 0.52917721 A

  Atomic type no.    1
  --------------------
  Nuclear charge:  15.00000
  Number of symmetry independent centers:    1
  Number of basis sets to read;    2
  Basis set file used for this atomic type with Z =  15 :
     "/gpfs/projects/rjh/adrian/dalton/build/basis/aug-cc-pCVDZ"

  Atomic type no.    2
  --------------------
  Nuclear charge:   1.00000
  Number of symmetry independent centers:    3
  Number of basis sets to read;    2
  Basis set file used for this atomic type with Z =   1 :
     "/gpfs/projects/rjh/adrian/dalton/build/basis/aug-cc-pCVDZ"


                         SYMGRP: Point group information
                         -------------------------------

@    Point group: C1 


                                 Isotopic Masses
                                 ---------------

                           P_a        30.973763
                           H_a         1.007825
                           H_b         1.007825
                           H_c         1.007825

                       Total mass:    33.997238 amu
                       Natural abundance:  99.955 %

 Center-of-mass coordinates (a.u.):    0.000000    0.000000   -0.129691
 Center-of-mass coordinates (Angs):    0.000000    0.000000   -0.068630


  Atoms and basis sets
  --------------------

  Number of atom types :    2
  Total number of atoms:    4

  Basis set used is "d-aug-cc-pCVDZ" from the basis set library.

  label    atoms   charge   prim   cont     basis
  ----------------------------------------------------------------------
  P_          1   15.0000    68    45      [15s11p4d|7s6p4d]                                  
  H_          3    1.0000    15    13      [6s3p|4s3p]                                        
  ----------------------------------------------------------------------
  total:      4   18.0000   113    84
  ----------------------------------------------------------------------
  Spherical harmonic basis used.

  Threshold for neglecting AO integrals:  1.00D-12


  Cartesian Coordinates (a.u.)
  ----------------------------

  Total number of coordinates:   12
  P_a     :     1  x   0.0000000000    2  y   0.0000000000    3  z   0.0000000000
  H_a     :     4  x   0.0000000000    5  y  -2.2548212094    6  z  -1.4583016496
  H_b     :     7  x   1.9526540095    8  y   1.1274106097    9  z  -1.4583016496
  H_c     :    10  x  -1.9526540095   11  y   1.1274106097   12  z  -1.4583016496


   Interatomic separations (in Angstrom):
   --------------------------------------

            P_a         H_a         H_b         H_c   
            ------      ------      ------      ------
 P_a   :    0.000000
 H_a   :    1.421002    0.000000
 H_b   :    1.420972    2.066662    0.000000
 H_c   :    1.420972    2.066662    2.066600    0.000000


  Max    interatomic separation is    2.0667 Angstrom (    3.9054 Bohr)
  between atoms    3 and    2, "H_b   " and "H_a   ".

  Min HX interatomic separation is    1.4210 Angstrom (    2.6852 Bohr)


  Bond distances (Angstrom):
  --------------------------

                  atom 1     atom 2       distance
                  ------     ------       --------
  bond distance:  H_a        P_a          1.421002
  bond distance:  H_b        P_a          1.420972
  bond distance:  H_c        P_a          1.420972


  Bond angles (degrees):
  ----------------------

                  atom 1     atom 2     atom 3         angle
                  ------     ------     ------         -----
  bond angle:     H_a        P_a        H_b           93.303
  bond angle:     H_a        P_a        H_c           93.303
  bond angle:     H_b        P_a        H_c           93.301




 Principal moments of inertia (u*A**2) and principal axes
 --------------------------------------------------------

   IA       3.792542          0.000000    1.000000   -0.000000
   IB       3.792715          1.000000    0.000000    0.000000
   IC       4.304428          0.000000    0.000000    1.000000


 Rotational constants
 --------------------

               A                   B                   C

         133255.9944         133249.9191         117409.1033 MHz
            4.444942            4.444739            3.916346 cm-1


@  Nuclear repulsion energy :   17.526280706353 Hartree


                     .---------------------------------------.
                     | Starting in Integral Section (HERMIT) |
                     `---------------------------------------'



 ***************************************************************************************
 ****************** Output from **INTEGRALS input processing (HERMIT) ******************
 ***************************************************************************************


 - Using defaults, no **INTEGRALS input found

 Default print level:        1

 Calculation of one-electron Hamiltonian integrals.

 Center of mass  (bohr):      0.000000000000      0.000000000297     -0.129691081968
 Operator center (bohr):      0.000000000000      0.000000000000      0.000000000000
 Gauge origin    (bohr):      0.000000000000      0.000000000000      0.000000000000
 Dipole origin   (bohr):      0.000000000000      0.000000000000      0.000000000000


     ************************************************************************
     ************************** Output from HERINT **************************
     ************************************************************************



                      Nuclear contribution to dipole moments
                      --------------------------------------

                 au               Debye          C m (/(10**-30)

      x      0.00000000         0.00000000         0.00000000
      y      0.00000001         0.00000003         0.00000008
      z     -4.37490495       -11.11989850       -37.09198882


  Total CPU  time used in HERMIT:   0.19 seconds
  Total wall time used in HERMIT:   0.20 seconds


                        .----------------------------------.
                        | End of Integral Section (HERMIT) |
                        `----------------------------------'



                   .--------------------------------------------.
                   | Starting in Wave Function Section (SIRIUS) |
                   `--------------------------------------------'


 *** Output from Huckel module :

     Using EWMO model:          T
     Using EHT  model:          F
     Number of Huckel orbitals each symmetry:   17

 EWMO - Energy Weighted Maximum Overlap - is a Huckel type method,
        which normally is better than Extended Huckel Theory.
 Reference: Linderberg and Ohrn, Propagators in Quantum Chemistry (Wiley, 1973)

 Huckel EWMO eigenvalues for symmetry :  1
          -79.989138      -7.539621      -5.419453      -5.419453      -5.419331
           -1.162139      -0.617917      -0.617908      -0.435032      -0.171097
           -0.171096      -0.123482      -0.055556      -0.055556      -0.055288
           -0.028356      -0.028355

 **********************************************************************
 *SIRIUS* a direct, restricted step, second order MCSCF program       *
 **********************************************************************

 
     Date and time (Linux)  : Fri Sep 29 10:41:11 2023
     Host name              : sn-mem                                  

 Title lines from ".mol" input file:
     blah                                                                    
     blah                                                                    

 Print level on unit LUPRI =   2 is   0
 Print level on unit LUW4  =   2 is   5

@    Restricted, closed shell Hartree-Fock calculation.

@    Time-dependent Hartree-Fock calculation (random phase approximation).
 Fock matrices are calculated directly and in parallel without use of integrals on disk.

 Initial molecular orbitals are obtained according to
 ".MOSTART EWMO  " input option

     Wave function specification
     ============================
@    Wave function type        --- HF ---
@    Number of closed shell electrons          18
@    Number of electrons in active shells       0
@    Total charge of the molecule               0

@    Spin multiplicity and 2 M_S                1         0
@    Total number of symmetries                 1 (point group: C1 )
@    Reference state symmetry                   1 (irrep name : A  )

     Orbital specifications
     ======================
@    Abelian symmetry species          All |    1
@                                          |  A  
                                       --- |  ---
@    Occupied SCF orbitals               9 |    9
@    Secondary orbitals                 75 |   75
@    Total number of orbitals           84 |   84
@    Number of basis functions          84 |   84

     Optimization information
     ========================
@    Number of configurations                 1
@    Number of orbital rotations            675
     ------------------------------------------
@    Total number of variables              676

     Maximum number of Fock   iterations      0
     Maximum number of DIIS   iterations     60
     Maximum number of QC-SCF iterations     60
     Threshold for SCF convergence     1.00D-05


 ***********************************************
 ***** DIIS acceleration of SCF iterations *****
 ***********************************************

 C1-DIIS algorithm; max error vectors =    8

 Iter      Total energy        Error norm    Delta(E)  DIIS dim.
 -----------------------------------------------------------------------------
   1  Screening settings (-IFTHRS, JTDIIS, DIFDEN, times)   -7    1    T  1.73D-01  1.74D-01
@  1    -342.346862695        1.14739D+00   -3.42D+02    1
      Virial theorem: -V/T =      2.002767
@    MULPOP   P_a     0.06; H_a    -0.02; H_b    -0.02; H_c    -0.02; 
   1  Level shift: doubly occupied orbital energies shifted by -2.00D-01
 -----------------------------------------------------------------------------
   2  Screening settings (-IFTHRS, JTDIIS, DIFDEN, times)   -7    2    T  1.64D-01  1.64D-01
@  2    -342.465596300        2.89189D-01   -1.19D-01    2
      Virial theorem: -V/T =      1.999328
@    MULPOP   P_a    -0.08; H_a     0.03; H_b     0.03; H_c     0.03; 
   2  Level shift: doubly occupied orbital energies shifted by -1.00D-01
 -----------------------------------------------------------------------------
   3  Screening settings (-IFTHRS, JTDIIS, DIFDEN, times)  -11    3    F  1.63D-01  1.64D-01
@  3    -342.471800660        8.45323D-02   -6.20D-03    3
      Virial theorem: -V/T =      2.000467
@    MULPOP   P_a    -0.18; H_a     0.06; H_b     0.06; H_c     0.06; 
   3  Level shift: doubly occupied orbital energies shifted by -5.00D-02
 -----------------------------------------------------------------------------
   4  Screening settings (-IFTHRS, JTDIIS, DIFDEN, times)  -11    4    T  1.52D-01  1.52D-01
@  4    -342.472857172        2.53572D-02   -1.06D-03    4
      Virial theorem: -V/T =      2.000307
@    MULPOP   P_a    -0.18; H_a     0.06; H_b     0.06; H_c     0.06; 
   4  Level shift: doubly occupied orbital energies shifted by -2.50D-02
 -----------------------------------------------------------------------------
   5  Screening settings (-IFTHRS, JTDIIS, DIFDEN, times)  -11    5    T  1.48D-01  1.47D-01
@  5    -342.473003170        6.32544D-03   -1.46D-04    5
      Virial theorem: -V/T =      2.000380
@    MULPOP   P_a    -0.18; H_a     0.06; H_b     0.06; H_c     0.06; 
 -----------------------------------------------------------------------------
   6  Screening settings (-IFTHRS, JTDIIS, DIFDEN, times)  -11    6    T  1.48D-01  1.48D-01
@  6    -342.473015903        1.00313D-03   -1.27D-05    6
      Virial theorem: -V/T =      2.000380
@    MULPOP   P_a    -0.17; H_a     0.06; H_b     0.06; H_c     0.06; 
 -----------------------------------------------------------------------------
   7  Screening settings (-IFTHRS, JTDIIS, DIFDEN, times)  -11    7    T  1.49D-01  1.49D-01
@  7    -342.473016239        1.85576D-04   -3.35D-07    7
      Virial theorem: -V/T =      2.000383
@    MULPOP   P_a    -0.17; H_a     0.06; H_b     0.06; H_c     0.06; 
 -----------------------------------------------------------------------------
   8  Screening settings (-IFTHRS, JTDIIS, DIFDEN, times)  -11    8    T  1.59D-01  1.59D-01
@  8    -342.473016249        3.20403D-05   -1.02D-08    8
      Virial theorem: -V/T =      2.000383
@    MULPOP   P_a    -0.17; H_a     0.06; H_b     0.06; H_c     0.06; 
 -----------------------------------------------------------------------------
   9  Screening settings (-IFTHRS, JTDIIS, DIFDEN, times)  -11    9    T  1.58D-01  1.58D-01
@  9    -342.473016249        5.53816D-06   -2.20D-10    8

@ *** DIIS converged in   9 iterations !
@     Converged SCF energy, gradient:   -342.473016249100    5.54D-06
    - total time used in SIRFCK :              0.00 seconds


 *** SCF orbital energy analysis ***

 Only the 20 lowest virtual orbital energies printed in each symmetry.

 Number of electrons :   18
 Orbital occupations :    9

 Sym       Hartree-Fock orbital energies

1 A     -79.95401172    -7.49552896    -5.38927694    -5.38927684    -5.38825784
         -0.85626491    -0.51886990    -0.51886873    -0.38829092     0.00815786
          0.01349868     0.01349872     0.02250482     0.03569507     0.03569518
          0.03813480     0.06244025     0.06244039     0.07418308     0.07516563
          0.07516576     0.09195491     0.09552921     0.09552960     0.10848083
          0.11600768     0.13108338     0.13108340     0.13709119

    E(LUMO) :     0.00815786 au (symmetry 1)
  - E(HOMO) :    -0.38829092 au (symmetry 1)
  ------------------------------------------
    gap     :     0.39644878 au

 --- Writing SIRIFC interface file

 CPU and wall time for SCF :       1.493       1.497


                       .-----------------------------------.
                       | --- Final results from SIRIUS --- |
                       `-----------------------------------'


@    Spin multiplicity:           1
@    Spatial symmetry:            1 ( irrep  A   in C1  )
@    Total charge of molecule:    0

@    Final HF energy:            -342.473016249100                 
@    Nuclear repulsion:            17.526280706353
@    Electronic energy:          -359.999296955453

@    Final gradient norm:           0.000005538155

 
     Date and time (Linux)  : Fri Sep 29 10:41:12 2023
     Host name              : sn-mem                                  

File label for MO orbitals:  29Sep23   FOCKDIIS

 (Only coefficients > 0.0100 are printed.)

 Molecular orbitals for symmetry species 1  (A  )
 ------------------------------------------------

    Orbital         1        2        3        4        5        6        7
   1 P_a :1s    -0.9999   0.0013   0.0000   0.0000   0.0008   0.0004  -0.0000
   2 P_a :1s    -0.0004   1.0109   0.0000  -0.0000  -0.0035  -0.0051  -0.0000
   3 P_a :1s    -0.0016   0.0275   0.0000   0.0000   0.0052   0.8087   0.0000
   4 P_a :1s     0.0055  -0.0936  -0.0000  -0.0000  -0.0117  -0.1278   0.0000
   6 P_a :1s     0.0010  -0.0085  -0.0000  -0.0000  -0.0102  -0.0366   0.0000
   7 P_a :1s     0.0002  -0.0007  -0.0000  -0.0000  -0.0009  -0.0125   0.0000
   8 P_a :2px    0.0000   0.0000  -1.0002   0.0000   0.0000   0.0000  -0.0000
   9 P_a :2py   -0.0000  -0.0000   0.0000   1.0002  -0.0001  -0.0000   0.0175
  10 P_a :2pz    0.0003  -0.0055   0.0000  -0.0001  -1.0011   0.0122  -0.0000
  12 P_a :2py   -0.0000   0.0000  -0.0000   0.0025  -0.0000   0.0000  -0.6361
  13 P_a :2pz    0.0002  -0.0038   0.0000   0.0000   0.0002  -0.1342   0.0000
  14 P_a :2px    0.0000  -0.0000   0.0111  -0.0000  -0.0000  -0.0000   0.0000
  15 P_a :2py    0.0000  -0.0000  -0.0000  -0.0111   0.0000  -0.0000   0.0027
  16 P_a :2pz   -0.0020   0.0332   0.0000   0.0000   0.0067   0.0621  -0.0000
  21 P_a :2py    0.0000  -0.0000  -0.0000   0.0075  -0.0000   0.0000   0.1096
  24 P_a :2py   -0.0000  -0.0000   0.0000   0.0008  -0.0000   0.0000   0.0107
  32 P_a :3d1-   0.0000  -0.0000   0.0000  -0.0007   0.0000  -0.0000   0.0784
  35 P_a :3d2+  -0.0000   0.0000   0.0000   0.0002  -0.0000  -0.0000  -0.0578
  37 P_a :3d1-  -0.0000   0.0000   0.0000   0.0035  -0.0000   0.0000   0.0575
  40 P_a :3d2+   0.0000  -0.0000  -0.0000  -0.0013   0.0000   0.0000  -0.0304
  42 P_a :3d1-   0.0000   0.0000   0.0000  -0.0010   0.0000  -0.0000  -0.0108
  46 H_a :1s     0.0000   0.0003   0.0000  -0.0006   0.0008   0.3036   0.6103
  47 H_a :1s    -0.0018   0.0287  -0.0000  -0.0093   0.0043  -0.1113  -0.2861
  48 H_a :1s    -0.0002   0.0011  -0.0000   0.0228   0.0022   0.0143   0.3586
  49 H_a :1s    -0.0000  -0.0000   0.0000   0.0018   0.0001   0.0011   0.0275
  51 H_a :2py    0.0001  -0.0004   0.0000  -0.0001   0.0002   0.0180   0.0137
  52 H_a :2pz    0.0000  -0.0003   0.0000  -0.0001   0.0002   0.0110   0.0142
  54 H_a :2py   -0.0006   0.0092   0.0000  -0.0015   0.0014   0.0030  -0.0377
  55 H_a :2pz   -0.0002   0.0031  -0.0000  -0.0013  -0.0005   0.0024  -0.0244
  57 H_a :2py   -0.0000  -0.0000  -0.0000   0.0036   0.0005   0.0012   0.0595
  58 H_a :2pz    0.0000  -0.0013  -0.0000   0.0018   0.0008   0.0046   0.0329
  59 H_b :1s     0.0000   0.0003  -0.0005   0.0003   0.0008   0.3036  -0.3052
  60 H_b :1s    -0.0018   0.0287  -0.0081   0.0047   0.0043  -0.1113   0.1431
  61 H_b :1s    -0.0002   0.0011   0.0198  -0.0114   0.0022   0.0143  -0.1793
  62 H_b :1s    -0.0000  -0.0000   0.0016  -0.0009   0.0001   0.0011  -0.0137
  63 H_b :2px   -0.0000   0.0004   0.0001  -0.0000  -0.0002  -0.0156   0.0086
  65 H_b :2pz    0.0000  -0.0003  -0.0001   0.0001   0.0002   0.0110  -0.0071
  66 H_b :2px    0.0005  -0.0079   0.0008  -0.0012  -0.0012  -0.0026  -0.0203
  68 H_b :2pz   -0.0002   0.0031  -0.0011   0.0007  -0.0005   0.0024   0.0122
  69 H_b :2px    0.0000   0.0000  -0.0028   0.0014  -0.0004  -0.0010   0.0242
  70 H_b :2py    0.0000   0.0000  -0.0014   0.0012  -0.0002  -0.0006   0.0177
  71 H_b :2pz    0.0000  -0.0013   0.0015  -0.0009   0.0008   0.0046  -0.0164
  72 H_c :1s     0.0000   0.0003   0.0005   0.0003   0.0008   0.3036  -0.3052
  73 H_c :1s    -0.0018   0.0287   0.0081   0.0047   0.0043  -0.1113   0.1431
  74 H_c :1s    -0.0002   0.0011  -0.0198  -0.0114   0.0022   0.0143  -0.1793
  75 H_c :1s    -0.0000  -0.0000  -0.0016  -0.0009   0.0001   0.0011  -0.0138
  76 H_c :2px    0.0000  -0.0004   0.0001   0.0000   0.0002   0.0156  -0.0086
  78 H_c :2pz    0.0000  -0.0003   0.0001   0.0001   0.0002   0.0110  -0.0071
  79 H_c :2px   -0.0005   0.0079   0.0008   0.0012   0.0012   0.0026   0.0203
  81 H_c :2pz   -0.0002   0.0031   0.0011   0.0007  -0.0005   0.0024   0.0122
  82 H_c :2px   -0.0000  -0.0000  -0.0028  -0.0014   0.0004   0.0010  -0.0242
  83 H_c :2py    0.0000   0.0000   0.0014   0.0012  -0.0002  -0.0006   0.0177
  84 H_c :2pz    0.0000  -0.0013  -0.0015  -0.0009   0.0008   0.0046  -0.0164

    Orbital         8        9       10       11       12       13       14
   3 P_a :1s    -0.0000  -0.4159   0.0520  -0.0000   0.0000  -0.0008  -0.0000
   4 P_a :1s     0.0000  -0.1888   0.2044   0.0000   0.0000  -0.1121   0.0000
   6 P_a :1s     0.0000  -0.0644   1.5893   0.0001   0.0000   0.3168   0.0000
   7 P_a :1s     0.0000  -0.0132   2.9410   0.0000   0.0000  -1.0553   0.0000
   8 P_a :2px   -0.0175  -0.0000  -0.0000   0.0000   0.0008   0.0000   0.0011
  10 P_a :2pz   -0.0000   0.0110   0.0016   0.0000   0.0000   0.0017  -0.0000
  11 P_a :2px    0.6361  -0.0000   0.0000   0.0000   0.0258   0.0000  -0.0113
  12 P_a :2py    0.0000  -0.0000  -0.0000   0.0258  -0.0000  -0.0000  -0.0000
  13 P_a :2pz   -0.0000  -0.7782  -0.0213   0.0000  -0.0000  -0.0450  -0.0000
  14 P_a :2px   -0.0027   0.0000   0.0000   0.0000   0.0546  -0.0000   0.0196
  15 P_a :2py    0.0000  -0.0000   0.0000   0.0546  -0.0000   0.0000   0.0000
  16 P_a :2pz   -0.0000   0.0706  -0.1716  -0.0000  -0.0000   0.0060   0.0000
  20 P_a :2px   -0.1096   0.0000   0.0000   0.0000   1.6645  -0.0000   1.7055
  21 P_a :2py   -0.0000  -0.0000   0.0000   1.6646  -0.0000  -0.0000  -0.0000
  22 P_a :2pz   -0.0000  -0.0332  -0.4128  -0.0000   0.0000   0.6919  -0.0000
  23 P_a :2px   -0.0107   0.0000  -0.0000   0.0000   1.8425   0.0000   4.8053
  24 P_a :2py    0.0000   0.0000   0.0000   1.8425  -0.0000  -0.0000  -0.0000
  25 P_a :2pz   -0.0000   0.0052  -0.2198   0.0000  -0.0000   1.5837  -0.0000
  31 P_a :3d2-   0.0578   0.0000  -0.0000   0.0000   0.0029   0.0000  -0.0088
  34 P_a :3d1+  -0.0784   0.0000   0.0000  -0.0000  -0.0025  -0.0000   0.0084
  36 P_a :3d2-   0.0304   0.0000  -0.0000   0.0000   0.0142  -0.0000  -0.0011
  37 P_a :3d1-  -0.0000   0.0000  -0.0000  -0.0425   0.0000  -0.0000  -0.0000
  38 P_a :3d0   -0.0000   0.0096   0.0249  -0.0000   0.0000   0.0051   0.0000
  39 P_a :3d1+  -0.0575  -0.0000  -0.0000  -0.0000  -0.0425   0.0000  -0.0157
  40 P_a :3d2+   0.0000  -0.0000   0.0000   0.0142  -0.0000   0.0000   0.0000
  41 P_a :3d2-  -0.0092  -0.0000   0.0000   0.0000   0.1786  -0.0000   0.0989
  42 P_a :3d1-   0.0000  -0.0000  -0.0000  -0.2059   0.0000   0.0000   0.0000
  43 P_a :3d0   -0.0000  -0.0004  -0.0059   0.0000  -0.0000  -0.2711  -0.0000
  44 P_a :3d1+   0.0108  -0.0000  -0.0000  -0.0000  -0.2059   0.0000  -0.4390
  45 P_a :3d2+  -0.0000  -0.0000  -0.0000   0.1786  -0.0000  -0.0000  -0.0000
  46 H_a :1s    -0.0000   0.2279   0.0031  -0.0183  -0.0000   0.0120  -0.0000
  47 H_a :1s     0.0000  -0.0116  -0.1758   0.1248  -0.0000   0.0401  -0.0000
  48 H_a :1s    -0.0000   0.0137  -0.8949   5.7172  -0.0000   0.2666  -0.0000
  49 H_a :1s     0.0000   0.0009  -0.8738   9.1638  -0.0000   0.1558  -0.0000
  53 H_a :2px   -0.0091  -0.0000  -0.0000  -0.0000  -0.0195   0.0000  -0.0283
  54 H_a :2py    0.0000   0.0085  -0.0484   0.0170  -0.0000   0.0183   0.0000
  55 H_a :2pz    0.0000   0.0058  -0.0067   0.0204  -0.0000  -0.0075   0.0000
  56 H_a :2px   -0.0037  -0.0000   0.0000  -0.0000   0.0547  -0.0000  -0.6277
  57 H_a :2py   -0.0000  -0.0016  -0.1148   1.0779  -0.0000  -0.0732  -0.0000
  58 H_a :2pz   -0.0000  -0.0011  -0.0850   0.6351  -0.0000  -0.4411  -0.0000
  59 H_b :1s     0.5286   0.2279   0.0031   0.0092   0.0159   0.0120  -0.0295
  60 H_b :1s    -0.2478  -0.0116  -0.1759  -0.0624  -0.1081   0.0401  -0.1252
  61 H_b :1s     0.3106   0.0137  -0.8949  -2.8586  -4.9514   0.2667  -2.2623
  62 H_b :1s     0.0238   0.0009  -0.8738  -4.5819  -7.9364   0.1558 -10.3951
  65 H_b :2pz    0.0123  -0.0042   0.0008   0.0005   0.0009   0.0014  -0.0013
  66 H_b :2px    0.0260  -0.0074   0.0420   0.0158   0.0079  -0.0159  -0.0080
  67 H_b :2py    0.0203  -0.0043   0.0242  -0.0104   0.0158  -0.0092   0.0117
  68 H_b :2pz   -0.0211   0.0058  -0.0067  -0.0102  -0.0177  -0.0075   0.0037
  69 H_b :2px   -0.0456   0.0013   0.0995   0.4431   0.8221   0.0634  -0.3908
  70 H_b :2py   -0.0242   0.0008   0.0574   0.3105   0.4431   0.0366   0.1368
  71 H_b :2pz    0.0285  -0.0011  -0.0850  -0.3176  -0.5500  -0.4411  -0.3060
  72 H_c :1s    -0.5286   0.2279   0.0031   0.0092  -0.0159   0.0120   0.0295
  73 H_c :1s     0.2478  -0.0116  -0.1759  -0.0624   0.1081   0.0401   0.1252
  74 H_c :1s    -0.3106   0.0137  -0.8949  -2.8586   4.9515   0.2667   2.2623
  75 H_c :1s    -0.0238   0.0009  -0.8738  -4.5819   7.9364   0.1558  10.3951
  78 H_c :2pz   -0.0123  -0.0042   0.0008   0.0005  -0.0009   0.0014   0.0013
  79 H_c :2px    0.0260   0.0074  -0.0420  -0.0158   0.0079   0.0159  -0.0080
  80 H_c :2py   -0.0203  -0.0043   0.0242  -0.0104  -0.0158  -0.0092  -0.0117
  81 H_c :2pz    0.0211   0.0058  -0.0067  -0.0102   0.0177  -0.0075  -0.0037
  82 H_c :2px   -0.0456  -0.0013  -0.0995  -0.4431   0.8221  -0.0634  -0.3908
  83 H_c :2py    0.0242   0.0008   0.0574   0.3105  -0.4431   0.0366  -0.1368
  84 H_c :2pz   -0.0285  -0.0011  -0.0850  -0.3176   0.5500  -0.4411   0.3060

    Orbital        15       16       17       18       19
   2 P_a :1s    -0.0000  -0.0302  -0.0000   0.0000   0.0241
   3 P_a :1s    -0.0000  -0.1992  -0.0000   0.0000   0.0861
   4 P_a :1s     0.0000   0.4615   0.0000  -0.0000  -0.1654
   6 P_a :1s     0.0002   4.2259   0.0003  -0.0000  -0.4174
   7 P_a :1s     0.0003   7.5548  -0.0000  -0.0000  -0.9229
  11 P_a :2px    0.0000   0.0000   0.0000  -0.0976   0.0000
  12 P_a :2py   -0.0113   0.0000  -0.0976  -0.0000  -0.0000
  13 P_a :2pz    0.0000   0.0694   0.0000   0.0000   0.1189
  14 P_a :2px    0.0000  -0.0000  -0.0000   0.2405   0.0000
  15 P_a :2py    0.0196   0.0000   0.2406   0.0000   0.0000
  16 P_a :2pz   -0.0000  -0.4557  -0.0000   0.0000   0.0555
  20 P_a :2px    0.0000  -0.0000  -0.0001   6.3814   0.0000
  21 P_a :2py    1.7055  -0.0000   6.3814   0.0001   0.0003
  22 P_a :2pz   -0.0000  -1.0845  -0.0000   0.0000   3.1071
  23 P_a :2px    0.0000  -0.0000   0.0000  -0.2492   0.0000
  24 P_a :2py    4.8053  -0.0002  -0.2492  -0.0000   0.0002
  25 P_a :2pz   -0.0000  -0.4508   0.0000   0.0000   1.1391
  36 P_a :3d2-  -0.0000  -0.0000  -0.0000   0.0420  -0.0000
  37 P_a :3d1-  -0.0157  -0.0000  -0.1857  -0.0000  -0.0000
  38 P_a :3d0    0.0000   0.0666  -0.0000  -0.0000  -0.0172
  39 P_a :3d1+  -0.0000   0.0000   0.0000  -0.1857  -0.0000
  40 P_a :3d2+  -0.0011   0.0000   0.0420   0.0000   0.0000
  41 P_a :3d2-   0.0000  -0.0000  -0.0000   1.0246   0.0000
  42 P_a :3d1-  -0.4390   0.0000  -0.3343  -0.0000  -0.0001
  43 P_a :3d0   -0.0000  -0.0658   0.0000   0.0000  -0.9215
  44 P_a :3d1+  -0.0000   0.0000   0.0000  -0.3343  -0.0000
  45 P_a :3d2+   0.0989  -0.0000   1.0246   0.0000  -0.0003
  46 H_a :1s     0.0340   0.0085   0.0091   0.0000  -0.0407
  47 H_a :1s     0.1446  -0.4508   0.4098   0.0000   0.2245
  48 H_a :1s     2.6123  -2.5106  29.8002   0.0003   0.3737
  49 H_a :1s    12.0028  -1.1815   2.5234   0.0000   0.0913
  53 H_a :2px    0.0000   0.0000   0.0000  -0.0532  -0.0000
  54 H_a :2py   -0.0013  -0.1481   0.1130   0.0000   0.0388
  55 H_a :2pz   -0.0043  -0.0296   0.1081   0.0000  -0.0538
  56 H_a :2px   -0.0000  -0.0000  -0.0000   1.9391   0.0000
  57 H_a :2py   -0.3118  -0.3800   7.0169   0.0001   0.7139
  58 H_a :2pz    0.3533  -0.3002   3.4895   0.0000  -1.4832
  59 H_b :1s    -0.0170   0.0085  -0.0045  -0.0078  -0.0407
  60 H_b :1s    -0.0723  -0.4509  -0.2049  -0.3549   0.2244
  61 H_b :1s    -1.3063  -2.5105 -14.8999 -25.8093   0.3735
  62 H_b :1s    -6.0015  -1.1809  -1.2617  -2.1854   0.0903
  66 H_b :2px    0.0117   0.1282   0.0720   0.0715  -0.0336
  67 H_b :2py   -0.0215   0.0740  -0.0117   0.0720  -0.0194
  68 H_b :2pz    0.0021  -0.0296  -0.0540  -0.0936  -0.0538
  69 H_b :2px    0.1368   0.3291   2.1987   5.7477  -0.6175
  70 H_b :2py   -0.5487   0.1900   3.2086   2.1989  -0.3571
  71 H_b :2pz   -0.1767  -0.3002  -1.7447  -3.0221  -1.4829
  72 H_c :1s    -0.0170   0.0085  -0.0045   0.0078  -0.0407
  73 H_c :1s    -0.0723  -0.4509  -0.2049   0.3549   0.2244
  74 H_c :1s    -1.3063  -2.5105 -14.9004  25.8090   0.3735
  75 H_c :1s    -6.0014  -1.1809  -1.2617   2.1854   0.0903
  79 H_c :2px   -0.0117  -0.1282  -0.0720   0.0715   0.0336
  80 H_c :2py   -0.0215   0.0740  -0.0117  -0.0720  -0.0194
  81 H_c :2pz    0.0021  -0.0296  -0.0540   0.0936  -0.0538
  82 H_c :2px   -0.1368  -0.3291  -2.1988   5.7476   0.6175
  83 H_c :2py   -0.5487   0.1900   3.2086  -2.1988  -0.3571
  84 H_c :2pz   -0.1767  -0.3002  -1.7448   3.0220  -1.4829

  Total CPU  time used in SIRIUS :   1.58 seconds
  Total wall time used in SIRIUS :   1.58 seconds

 
     Date and time (Linux)  : Fri Sep 29 10:41:12 2023
     Host name              : sn-mem                                  


                     .---------------------------------------.
                     | End of Wave Function Section (SIRIUS) |
                     `---------------------------------------'



                 .------------------------------------------------.
                 | Starting in Dynamic Property Section (RESPONS) |
                 `------------------------------------------------'


 ----------------------------------------------------------------------------------------
  RESPONSE  -  an MCSCF, MC-srDFT, DFT, SOPPA and SOPPA-srDFT response property program
 ----------------------------------------------------------------------------------------


 -------- OUTPUT FROM RESPONSE INPUT PROCESSING --------




 Quadratic Response calculation
 ------------------------------

 First hyperpolarizability calculation : HYPCAL= T

 Spin of operator A , ISPINA=    0
 Spin of operator B , ISPINB=    0
 Spin of operator C , ISPINC=    0

  5 B-frequencies  0.000000D+00  1.647050D-02  3.294100D-02  4.941150D-02  6.588200D-02
  5 C-frequencies  0.000000D+00  1.647050D-02  3.294100D-02  4.941150D-02  6.588200D-02


 Print level                                    : IPRHYP =   2
 Maximum number of iterations in lin.rsp. solver: MAXITL =  60
 Threshold for convergence of linear resp. eq.s : THCLR  = 1.000D-03
 Maximum iterations in optimal orbital algorithm: MAXITO =   5
 Direct one-index transformation                : DIROIT = T

    3 A OPERATORS OF SYMMETRY NO:    1 AND LABELS:

          XDIPLEN 
          YDIPLEN 
          ZDIPLEN 

    3 B OPERATORS OF SYMMETRY NO:    1 AND LABELS:

          XDIPLEN 
          YDIPLEN 
          ZDIPLEN 

    3 C OPERATORS OF SYMMETRY NO:    1 AND LABELS:

          XDIPLEN 
          YDIPLEN 
          ZDIPLEN 


   SCF energy         :     -342.473016249099601
 -- inactive part     :     -359.999296955452792
 -- nuclear repulsion :       17.526280706353216


                     ***************************************
                     *** RHF response calculation (TDHF) ***
                     ***************************************



 Linear response calculations for quadratic response
 - singlet property operator of symmetry    1  ( A  )


 Perturbation symmetry.     KSYMOP:           1
 Perturbation spin symmetry.TRPLET:           F
 Orbital variables.         KZWOPT:         675
 Configuration variables.   KZCONF:           0
 Total number of variables. KZVAR :         675


 QRLRVE -- linear response calculation for symmetry  1  ( A  )
 QRLRVE -- operator label : XDIPLEN 
 QRLRVE -- operator spin  :   0
 QRLRVE -- frequencies :  0.000000  0.016470  0.032941  0.049411  0.065882
                          0.082352  0.098823  0.115293  0.131764



 ---  SOLVING SETS OF LINEAR EQUATIONS FOR LINEAR RESPONSE PROPERTIES ---

 Operator symmetry = 1  ( A  ); triplet =   F


 ** RSPCTL MICROITERATION NUMBER    1

       No.  Residual tot.,    conf., and orb.    Bnorm      Frequency 
      ----------------------------------------------------------------
         1    1.78442D+00  0.00D+00  1.78D+00  4.93D+00    0.00000D+00
         2    1.78698D+00  0.00D+00  1.79D+00  4.95D+00    1.64705D-02
         3    1.79474D+00  0.00D+00  1.79D+00  4.99D+00    3.29410D-02
         4    1.80789D+00  0.00D+00  1.81D+00  5.07D+00    4.94115D-02
         5    1.82677D+00  0.00D+00  1.83D+00  5.18D+00    6.58820D-02
         6    1.85190D+00  0.00D+00  1.85D+00  5.33D+00    8.23525D-02
         7    1.88402D+00  0.00D+00  1.88D+00  5.52D+00    9.88230D-02
         8    1.92418D+00  0.00D+00  1.92D+00  5.75D+00    1.15293D-01
         9    1.97381D+00  0.00D+00  1.97D+00  6.05D+00    1.31764D-01

 ** RSPCTL MICROITERATION NUMBER    2

       No.  Residual tot.,    conf., and orb.    Bnorm      Frequency 
      ----------------------------------------------------------------
         1    2.60157D-01  0.00D+00  2.60D-01  5.29D+00    0.00000D+00
         2    2.60874D-01  0.00D+00  2.61D-01  5.30D+00    1.64705D-02
         3    2.63052D-01  0.00D+00  2.63D-01  5.36D+00    3.29410D-02
         4    2.66770D-01  0.00D+00  2.67D-01  5.44D+00    4.94115D-02
         5    2.72172D-01  0.00D+00  2.72D-01  5.57D+00    6.58820D-02
         6    2.79481D-01  0.00D+00  2.79D-01  5.74D+00    8.23525D-02
         7    2.89029D-01  0.00D+00  2.89D-01  5.96D+00    9.88230D-02
         8    3.01307D-01  0.00D+00  3.01D-01  6.24D+00    1.15293D-01
         9    3.17056D-01  0.00D+00  3.17D-01  6.59D+00    1.31764D-01

 ** RSPCTL MICROITERATION NUMBER    3

       No.  Residual tot.,    conf., and orb.    Bnorm      Frequency 
      ----------------------------------------------------------------
         1    2.28558D-02  0.00D+00  2.29D-02  5.29D+00    0.00000D+00
         2    2.30162D-02  0.00D+00  2.30D-02  5.31D+00    1.64705D-02
         3    2.35062D-02  0.00D+00  2.35D-02  5.36D+00    3.29410D-02
         4    2.43533D-02  0.00D+00  2.44D-02  5.45D+00    4.94115D-02
         5    2.56080D-02  0.00D+00  2.56D-02  5.58D+00    6.58820D-02
         6    2.73513D-02  0.00D+00  2.74D-02  5.75D+00    8.23525D-02
         7    2.97091D-02  0.00D+00  2.97D-02  5.97D+00    9.88230D-02
         8    3.28760D-02  0.00D+00  3.29D-02  6.25D+00    1.15293D-01
         9    3.71602D-02  0.00D+00  3.72D-02  6.60D+00    1.31764D-01

 ** RSPCTL MICROITERATION NUMBER    4

       No.  Residual tot.,    conf., and orb.    Bnorm      Frequency 
      ----------------------------------------------------------------
         1    4.79855D-03  0.00D+00  4.80D-03  5.29D+00    0.00000D+00
         2    4.82773D-03  0.00D+00  4.83D-03  5.31D+00    1.64705D-02
         3    4.91701D-03  0.00D+00  4.92D-03  5.36D+00    3.29410D-02
         4    5.07201D-03  0.00D+00  5.07D-03  5.45D+00    4.94115D-02
         5    5.30307D-03  0.00D+00  5.30D-03  5.58D+00    6.58820D-02
         6    5.62723D-03  0.00D+00  5.63D-03  5.75D+00    8.23525D-02
         7    6.07166D-03  0.00D+00  6.07D-03  5.97D+00    9.88230D-02
         8    6.68010D-03  0.00D+00  6.68D-03  6.25D+00    1.15293D-01
         9    7.52503D-03  0.00D+00  7.53D-03  6.60D+00    1.31764D-01

 ** RSPCTL MICROITERATION NUMBER    5

       No.  Residual tot.,    conf., and orb.    Bnorm      Frequency 
      ----------------------------------------------------------------
         1    8.97404D-04  0.00D+00  8.97D-04  5.29D+00    0.00000D+00
         2    9.03826D-04  0.00D+00  9.04D-04  5.31D+00    1.64705D-02
         3    9.23474D-04  0.00D+00  9.23D-04  5.36D+00    3.29410D-02
         4    9.57552D-04  0.00D+00  9.58D-04  5.45D+00    4.94115D-02
         5    1.00826D-03  0.00D+00  1.01D-03  5.58D+00    6.58820D-02
         6    1.07914D-03  0.00D+00  1.08D-03  5.75D+00    8.23525D-02
         7    1.17578D-03  0.00D+00  1.18D-03  5.97D+00    9.88230D-02
         8    1.30699D-03  0.00D+00  1.31D-03  6.25D+00    1.15293D-01
         9    1.48724D-03  0.00D+00  1.49D-03  6.60D+00    1.31764D-01

 *** THE REQUESTED    9 SOLUTION VECTORS CONVERGED

 Convergence of RSP solution vectors, threshold = 1.00D-03
 ---------------------------------------------------------------
 (dimension of paired reduced space:   78)
 RSP solution vector no.    1; norm of residual   1.70D-04
 RSP solution vector no.    2; norm of residual   1.70D-04
 RSP solution vector no.    3; norm of residual   1.72D-04
 RSP solution vector no.    4; norm of residual   1.76D-04
 RSP solution vector no.    5; norm of residual   1.81D-04
 RSP solution vector no.    6; norm of residual   1.88D-04
 RSP solution vector no.    7; norm of residual   1.97D-04
 RSP solution vector no.    8; norm of residual   2.09D-04
 RSP solution vector no.    9; norm of residual   2.25D-04

 *** RSPCTL MICROITERATIONS CONVERGED

@ QRLRVE: SINGLET SOLUTION FOR SYMMETRY    1  ( A  )    LABEL   XDIPLEN     FREQUENCY   0.000000D+00

@ QRLRVE:  << XDIPLEN  ; XDIPLEN  >> (   0.00000):     29.5277783465    

@ QRLRVE:  << YDIPLEN  ; XDIPLEN  >> (   0.00000):   -1.032816716642E-05

@ QRLRVE:  << ZDIPLEN  ; XDIPLEN  >> (   0.00000):   -7.964051217152E-05

@ QRLRVE: SINGLET SOLUTION FOR SYMMETRY    1  ( A  )    LABEL   XDIPLEN     FREQUENCY   0.164705D-01

@ QRLRVE:  << XDIPLEN  ; XDIPLEN  >> (   0.01647):     29.5740473342    

@ QRLRVE:  << YDIPLEN  ; XDIPLEN  >> (   0.01647):   -9.566384492133E-06

@ QRLRVE:  << ZDIPLEN  ; XDIPLEN  >> (   0.01647):   -7.898987256731E-05

@ QRLRVE: SINGLET SOLUTION FOR SYMMETRY    1  ( A  )    LABEL   XDIPLEN     FREQUENCY   0.329410D-01

@ QRLRVE:  << XDIPLEN  ; XDIPLEN  >> (   0.03294):     29.7140440757    

@ QRLRVE:  << YDIPLEN  ; XDIPLEN  >> (   0.03294):   -7.148998098988E-06

@ QRLRVE:  << ZDIPLEN  ; XDIPLEN  >> (   0.03294):   -7.689302481036E-05

@ QRLRVE: SINGLET SOLUTION FOR SYMMETRY    1  ( A  )    LABEL   XDIPLEN     FREQUENCY   0.494115D-01

@ QRLRVE:  << XDIPLEN  ; XDIPLEN  >> (   0.04941):     29.9514347876    

@ QRLRVE:  << YDIPLEN  ; XDIPLEN  >> (   0.04941):   -2.650453877422E-06

@ QRLRVE:  << ZDIPLEN  ; XDIPLEN  >> (   0.04941):   -7.288434493725E-05

@ QRLRVE: SINGLET SOLUTION FOR SYMMETRY    1  ( A  )    LABEL   XDIPLEN     FREQUENCY   0.658820D-01

@ QRLRVE:  << XDIPLEN  ; XDIPLEN  >> (   0.06588):     30.2926700829    

@ QRLRVE:  << YDIPLEN  ; XDIPLEN  >> (   0.06588):    4.746024885029E-06

@ QRLRVE:  << ZDIPLEN  ; XDIPLEN  >> (   0.06588):   -6.607571678882E-05

@ QRLRVE: SINGLET SOLUTION FOR SYMMETRY    1  ( A  )    LABEL   XDIPLEN     FREQUENCY   0.823525D-01

@ QRLRVE:  << XDIPLEN  ; XDIPLEN  >> (   0.08235):     30.7475615198    

@ QRLRVE:  << YDIPLEN  ; XDIPLEN  >> (   0.08235):    1.644678382123E-05

@ QRLRVE:  << ZDIPLEN  ; XDIPLEN  >> (   0.08235):   -5.495189281539E-05

@ QRLRVE: SINGLET SOLUTION FOR SYMMETRY    1  ( A  )    LABEL   XDIPLEN     FREQUENCY   0.988230D-01

@ QRLRVE:  << XDIPLEN  ; XDIPLEN  >> (   0.09882):     31.3302439897    

@ QRLRVE:  << YDIPLEN  ; XDIPLEN  >> (   0.09882):    3.481727840099E-05

@ QRLRVE:  << ZDIPLEN  ; XDIPLEN  >> (   0.09882):   -3.699399157268E-05

@ QRLRVE: SINGLET SOLUTION FOR SYMMETRY    1  ( A  )    LABEL   XDIPLEN     FREQUENCY   0.115293D+00

@ QRLRVE:  << XDIPLEN  ; XDIPLEN  >> (   0.11529):     32.0607452090    

@ QRLRVE:  << YDIPLEN  ; XDIPLEN  >> (   0.11529):    6.386773355250E-05

@ QRLRVE:  << ZDIPLEN  ; XDIPLEN  >> (   0.11529):   -7.990400456979E-06

@ QRLRVE: SINGLET SOLUTION FOR SYMMETRY    1  ( A  )    LABEL   XDIPLEN     FREQUENCY   0.131764D+00

@ QRLRVE:  << XDIPLEN  ; XDIPLEN  >> (   0.13176):     32.9675842105    

@ QRLRVE:  << YDIPLEN  ; XDIPLEN  >> (   0.13176):    1.105578588679E-04

@ QRLRVE:  << ZDIPLEN  ; XDIPLEN  >> (   0.13176):    3.925727271242E-05


 QRLRVE -- linear response calculation for symmetry  1  ( A  )
 QRLRVE -- operator label : YDIPLEN 
 QRLRVE -- operator spin  :   0
 QRLRVE -- frequencies :  0.000000  0.016470  0.032941  0.049411  0.065882
                          0.082352  0.098823  0.115293  0.131764



 ---  SOLVING SETS OF LINEAR EQUATIONS FOR LINEAR RESPONSE PROPERTIES ---

 Operator symmetry = 1  ( A  ); triplet =   F


 ** RSPCTL MICROITERATION NUMBER    1

       No.  Residual tot.,    conf., and orb.    Bnorm      Frequency 
      ----------------------------------------------------------------
         1    1.76934D+00  0.00D+00  1.77D+00  4.93D+00    0.00000D+00
         2    1.77186D+00  0.00D+00  1.77D+00  4.94D+00    1.64705D-02
         3    1.77949D+00  0.00D+00  1.78D+00  4.99D+00    3.29410D-02
         4    1.79243D+00  0.00D+00  1.79D+00  5.07D+00    4.94115D-02
         5    1.81099D+00  0.00D+00  1.81D+00  5.18D+00    6.58820D-02
         6    1.83570D+00  0.00D+00  1.84D+00  5.33D+00    8.23525D-02
         7    1.86729D+00  0.00D+00  1.87D+00  5.51D+00    9.88230D-02
         8    1.90675D+00  0.00D+00  1.91D+00  5.75D+00    1.15293D-01
         9    1.95552D+00  0.00D+00  1.96D+00  6.05D+00    1.31764D-01

 ** RSPCTL MICROITERATION NUMBER    2

       No.  Residual tot.,    conf., and orb.    Bnorm      Frequency 
      ----------------------------------------------------------------
         1    2.57802D-01  0.00D+00  2.58D-01  5.29D+00    0.00000D+00
         2    2.58498D-01  0.00D+00  2.58D-01  5.30D+00    1.64705D-02
         3    2.60611D-01  0.00D+00  2.61D-01  5.36D+00    3.29410D-02
         4    2.64218D-01  0.00D+00  2.64D-01  5.44D+00    4.94115D-02
         5    2.69457D-01  0.00D+00  2.69D-01  5.57D+00    6.58820D-02
         6    2.76543D-01  0.00D+00  2.77D-01  5.74D+00    8.23525D-02
         7    2.85794D-01  0.00D+00  2.86D-01  5.96D+00    9.88230D-02
         8    2.97684D-01  0.00D+00  2.98D-01  6.24D+00    1.15293D-01
         9    3.12925D-01  0.00D+00  3.13D-01  6.59D+00    1.31764D-01

 ** RSPCTL MICROITERATION NUMBER    3

       No.  Residual tot.,    conf., and orb.    Bnorm      Frequency 
      ----------------------------------------------------------------
         1    2.13302D-02  0.00D+00  2.13D-02  5.29D+00    0.00000D+00
         2    2.14873D-02  0.00D+00  2.15D-02  5.31D+00    1.64705D-02
         3    2.19674D-02  0.00D+00  2.20D-02  5.36D+00    3.29410D-02
         4    2.27979D-02  0.00D+00  2.28D-02  5.45D+00    4.94115D-02
         5    2.40290D-02  0.00D+00  2.40D-02  5.58D+00    6.58820D-02
         6    2.57417D-02  0.00D+00  2.57D-02  5.75D+00    8.23525D-02
         7    2.80610D-02  0.00D+00  2.81D-02  5.97D+00    9.88230D-02
         8    3.11814D-02  0.00D+00  3.12D-02  6.25D+00    1.15293D-01
         9    3.54099D-02  0.00D+00  3.54D-02  6.60D+00    1.31764D-01

 ** RSPCTL MICROITERATION NUMBER    4

       No.  Residual tot.,    conf., and orb.    Bnorm      Frequency 
      ----------------------------------------------------------------
         1    3.32489D-03  0.00D+00  3.32D-03  5.29D+00    0.00000D+00
         2    3.35125D-03  0.00D+00  3.35D-03  5.31D+00    1.64705D-02
         3    3.43237D-03  0.00D+00  3.43D-03  5.36D+00    3.29410D-02
         4    3.57478D-03  0.00D+00  3.57D-03  5.45D+00    4.94115D-02
         5    3.79062D-03  0.00D+00  3.79D-03  5.58D+00    6.58820D-02
         6    4.09987D-03  0.00D+00  4.10D-03  5.75D+00    8.23525D-02
         7    4.53441D-03  0.00D+00  4.53D-03  5.97D+00    9.88230D-02
         8    5.14517D-03  0.00D+00  5.15D-03  6.25D+00    1.15293D-01
         9    6.01530D-03  0.00D+00  6.02D-03  6.60D+00    1.31764D-01

 *** THE REQUESTED    9 SOLUTION VECTORS CONVERGED

 Convergence of RSP solution vectors, threshold = 1.00D-03
 ---------------------------------------------------------------
 (dimension of paired reduced space:   72)
 RSP solution vector no.    1; norm of residual   6.28D-04
 RSP solution vector no.    2; norm of residual   6.31D-04
 RSP solution vector no.    3; norm of residual   6.40D-04
 RSP solution vector no.    4; norm of residual   6.56D-04
 RSP solution vector no.    5; norm of residual   6.80D-04
 RSP solution vector no.    6; norm of residual   7.13D-04
 RSP solution vector no.    7; norm of residual   7.60D-04
 RSP solution vector no.    8; norm of residual   8.23D-04
 RSP solution vector no.    9; norm of residual   9.11D-04

 *** RSPCTL MICROITERATIONS CONVERGED

@ QRLRVE: SINGLET SOLUTION FOR SYMMETRY    1  ( A  )    LABEL   YDIPLEN     FREQUENCY   0.000000D+00

@ QRLRVE:  << XDIPLEN  ; YDIPLEN  >> (   0.00000):   -5.938302284932E-04

@ QRLRVE:  << YDIPLEN  ; YDIPLEN  >> (   0.00000):     29.5284598081    

@ QRLRVE:  << ZDIPLEN  ; YDIPLEN  >> (   0.00000):   -5.734436563904E-04

@ QRLRVE: SINGLET SOLUTION FOR SYMMETRY    1  ( A  )    LABEL   YDIPLEN     FREQUENCY   0.164705D-01

@ QRLRVE:  << XDIPLEN  ; YDIPLEN  >> (   0.01647):   -5.989102876648E-04

@ QRLRVE:  << YDIPLEN  ; YDIPLEN  >> (   0.01647):     29.5747307310    

@ QRLRVE:  << ZDIPLEN  ; YDIPLEN  >> (   0.01647):   -5.825455042358E-04

@ QRLRVE: SINGLET SOLUTION FOR SYMMETRY    1  ( A  )    LABEL   YDIPLEN     FREQUENCY   0.329410D-01

@ QRLRVE:  << XDIPLEN  ; YDIPLEN  >> (   0.03294):   -6.144612784425E-04

@ QRLRVE:  << YDIPLEN  ; YDIPLEN  >> (   0.03294):     29.7147333358    

@ QRLRVE:  << ZDIPLEN  ; YDIPLEN  >> (   0.03294):   -6.105844727404E-04

@ QRLRVE: SINGLET SOLUTION FOR SYMMETRY    1  ( A  )    LABEL   YDIPLEN     FREQUENCY   0.494115D-01

@ QRLRVE:  << XDIPLEN  ; YDIPLEN  >> (   0.04941):   -6.414557239129E-04

@ QRLRVE:  << YDIPLEN  ; YDIPLEN  >> (   0.04941):     29.9521340148    

@ QRLRVE:  << ZDIPLEN  ; YDIPLEN  >> (   0.04941):   -6.598600391304E-04

@ QRLRVE: SINGLET SOLUTION FOR SYMMETRY    1  ( A  )    LABEL   YDIPLEN     FREQUENCY   0.658820D-01

@ QRLRVE:  << XDIPLEN  ; YDIPLEN  >> (   0.06588):   -6.816573809062E-04

@ QRLRVE:  << YDIPLEN  ; YDIPLEN  >> (   0.06588):     30.2933836857    

@ QRLRVE:  << ZDIPLEN  ; YDIPLEN  >> (   0.06588):   -7.345569616790E-04

@ QRLRVE: SINGLET SOLUTION FOR SYMMETRY    1  ( A  )    LABEL   YDIPLEN     FREQUENCY   0.823525D-01

@ QRLRVE:  << XDIPLEN  ; YDIPLEN  >> (   0.08235):   -7.378715166609E-04

@ QRLRVE:  << YDIPLEN  ; YDIPLEN  >> (   0.08235):     30.7482943585    

@ QRLRVE:  << ZDIPLEN  ; YDIPLEN  >> (   0.08235):   -8.413568153467E-04

@ QRLRVE: SINGLET SOLUTION FOR SYMMETRY    1  ( A  )    LABEL   YDIPLEN     FREQUENCY   0.988230D-01

@ QRLRVE:  << XDIPLEN  ; YDIPLEN  >> (   0.09882):   -8.143817448605E-04

@ QRLRVE:  << YDIPLEN  ; YDIPLEN  >> (   0.09882):     31.3310015468    

@ QRLRVE:  << ZDIPLEN  ; YDIPLEN  >> (   0.09882):   -9.904909147454E-04

@ QRLRVE: SINGLET SOLUTION FOR SYMMETRY    1  ( A  )    LABEL   YDIPLEN     FREQUENCY   0.115293D+00

@ QRLRVE:  << XDIPLEN  ; YDIPLEN  >> (   0.11529):   -9.177027275623E-04

@ QRLRVE:  << YDIPLEN  ; YDIPLEN  >> (   0.11529):     32.0615337808    

@ QRLRVE:  << ZDIPLEN  ; YDIPLEN  >> (   0.11529):   -1.197520099678E-03

@ QRLRVE: SINGLET SOLUTION FOR SYMMETRY    1  ( A  )    LABEL   YDIPLEN     FREQUENCY   0.131764D+00

@ QRLRVE:  << XDIPLEN  ; YDIPLEN  >> (   0.13176):   -1.057907009821E-03

@ QRLRVE:  << YDIPLEN  ; YDIPLEN  >> (   0.13176):     32.9684110928    

@ QRLRVE:  << ZDIPLEN  ; YDIPLEN  >> (   0.13176):   -1.486394382342E-03


 QRLRVE -- linear response calculation for symmetry  1  ( A  )
 QRLRVE -- operator label : ZDIPLEN 
 QRLRVE -- operator spin  :   0
 QRLRVE -- frequencies :  0.000000  0.016470  0.032941  0.049411  0.065882
                          0.082352  0.098823  0.115293  0.131764



 ---  SOLVING SETS OF LINEAR EQUATIONS FOR LINEAR RESPONSE PROPERTIES ---

 Operator symmetry = 1  ( A  ); triplet =   F


 ** RSPCTL MICROITERATION NUMBER    1

       No.  Residual tot.,    conf., and orb.    Bnorm      Frequency 
      ----------------------------------------------------------------
         1    1.65814D+00  0.00D+00  1.66D+00  5.33D+00    0.00000D+00
         2    1.66034D+00  0.00D+00  1.66D+00  5.35D+00    1.64705D-02
         3    1.66698D+00  0.00D+00  1.67D+00  5.40D+00    3.29410D-02
         4    1.67826D+00  0.00D+00  1.68D+00  5.50D+00    4.94115D-02
         5    1.69447D+00  0.00D+00  1.69D+00  5.64D+00    6.58820D-02
         6    1.71610D+00  0.00D+00  1.72D+00  5.83D+00    8.23525D-02
         7    1.74384D+00  0.00D+00  1.74D+00  6.07D+00    9.88230D-02
         8    1.77871D+00  0.00D+00  1.78D+00  6.38D+00    1.15293D-01
         9    1.82216D+00  0.00D+00  1.82D+00  6.78D+00    1.31764D-01

 ** RSPCTL MICROITERATION NUMBER    2

       No.  Residual tot.,    conf., and orb.    Bnorm      Frequency 
      ----------------------------------------------------------------
         1    3.59790D-01  0.00D+00  3.60D-01  5.67D+00    0.00000D+00
         2    3.60498D-01  0.00D+00  3.60D-01  5.69D+00    1.64705D-02
         3    3.62644D-01  0.00D+00  3.63D-01  5.76D+00    3.29410D-02
         4    3.66305D-01  0.00D+00  3.66D-01  5.87D+00    4.94115D-02
         5    3.71618D-01  0.00D+00  3.72D-01  6.03D+00    6.58820D-02
         6    3.78798D-01  0.00D+00  3.79D-01  6.25D+00    8.23525D-02
         7    3.88177D-01  0.00D+00  3.88D-01  6.54D+00    9.88230D-02
         8    4.00263D-01  0.00D+00  4.00D-01  6.91D+00    1.15293D-01
         9    4.15853D-01  0.00D+00  4.16D-01  7.39D+00    1.31764D-01

 ** RSPCTL MICROITERATION NUMBER    3

       No.  Residual tot.,    conf., and orb.    Bnorm      Frequency 
      ----------------------------------------------------------------
         1    4.63651D-02  0.00D+00  4.64D-02  5.68D+00    0.00000D+00
         2    4.64401D-02  0.00D+00  4.64D-02  5.70D+00    1.64705D-02
         3    4.66699D-02  0.00D+00  4.67D-02  5.77D+00    3.29410D-02
         4    4.70702D-02  0.00D+00  4.71D-02  5.88D+00    4.94115D-02
         5    4.76704D-02  0.00D+00  4.77D-02  6.04D+00    6.58820D-02
         6    4.85204D-02  0.00D+00  4.85D-02  6.26D+00    8.23525D-02
         7    4.97028D-02  0.00D+00  4.97D-02  6.55D+00    9.88230D-02
         8    5.13556D-02  0.00D+00  5.14D-02  6.92D+00    1.15293D-01
         9    5.37158D-02  0.00D+00  5.37D-02  7.41D+00    1.31764D-01

 ** RSPCTL MICROITERATION NUMBER    4

       No.  Residual tot.,    conf., and orb.    Bnorm      Frequency 
      ----------------------------------------------------------------
         1    4.07543D-03  0.00D+00  4.08D-03  5.68D+00    0.00000D+00
         2    4.10525D-03  0.00D+00  4.11D-03  5.70D+00    1.64705D-02
         3    4.19690D-03  0.00D+00  4.20D-03  5.77D+00    3.29410D-02
         4    4.35722D-03  0.00D+00  4.36D-03  5.88D+00    4.94115D-02
         5    4.59861D-03  0.00D+00  4.60D-03  6.04D+00    6.58820D-02
         6    4.94091D-03  0.00D+00  4.94D-03  6.26D+00    8.23525D-02
         7    5.41450D-03  0.00D+00  5.41D-03  6.55D+00    9.88230D-02
         8    6.06601D-03  0.00D+00  6.07D-03  6.92D+00    1.15293D-01
         9    6.96841D-03  0.00D+00  6.97D-03  7.41D+00    1.31764D-01

 *** THE REQUESTED    9 SOLUTION VECTORS CONVERGED

 Convergence of RSP solution vectors, threshold = 1.00D-03
 ---------------------------------------------------------------
 (dimension of paired reduced space:   72)
 RSP solution vector no.    1; norm of residual   7.18D-04
 RSP solution vector no.    2; norm of residual   7.20D-04
 RSP solution vector no.    3; norm of residual   7.28D-04
 RSP solution vector no.    4; norm of residual   7.41D-04
 RSP solution vector no.    5; norm of residual   7.61D-04
 RSP solution vector no.    6; norm of residual   7.89D-04
 RSP solution vector no.    7; norm of residual   8.27D-04
 RSP solution vector no.    8; norm of residual   8.76D-04
 RSP solution vector no.    9; norm of residual   9.40D-04

 *** RSPCTL MICROITERATIONS CONVERGED

@ QRLRVE: SINGLET SOLUTION FOR SYMMETRY    1  ( A  )    LABEL   ZDIPLEN     FREQUENCY   0.000000D+00

@ QRLRVE:  << XDIPLEN  ; ZDIPLEN  >> (   0.00000):   -1.682708027706E-03

@ QRLRVE:  << YDIPLEN  ; ZDIPLEN  >> (   0.00000):   -4.794811931896E-04

@ QRLRVE:  << ZDIPLEN  ; ZDIPLEN  >> (   0.00000):     30.5583847044    

@ QRLRVE: SINGLET SOLUTION FOR SYMMETRY    1  ( A  )    LABEL   ZDIPLEN     FREQUENCY   0.164705D-01

@ QRLRVE:  << XDIPLEN  ; ZDIPLEN  >> (   0.01647):   -1.690542989274E-03

@ QRLRVE:  << YDIPLEN  ; ZDIPLEN  >> (   0.01647):   -4.880891961588E-04

@ QRLRVE:  << ZDIPLEN  ; ZDIPLEN  >> (   0.01647):     30.6138504776    

@ QRLRVE: SINGLET SOLUTION FOR SYMMETRY    1  ( A  )    LABEL   ZDIPLEN     FREQUENCY   0.329410D-01

@ QRLRVE:  << XDIPLEN  ; ZDIPLEN  >> (   0.03294):   -1.714468772994E-03

@ QRLRVE:  << YDIPLEN  ; ZDIPLEN  >> (   0.03294):   -5.143478031163E-04

@ QRLRVE:  << ZDIPLEN  ; ZDIPLEN  >> (   0.03294):     30.7820096172    

@ QRLRVE: SINGLET SOLUTION FOR SYMMETRY    1  ( A  )    LABEL   ZDIPLEN     FREQUENCY   0.494115D-01

@ QRLRVE:  << XDIPLEN  ; ZDIPLEN  >> (   0.04941):   -1.755810711706E-03

@ QRLRVE:  << YDIPLEN  ; ZDIPLEN  >> (   0.04941):   -5.595965674052E-04

@ QRLRVE:  << ZDIPLEN  ; ZDIPLEN  >> (   0.04941):     31.0683237625    

@ QRLRVE: SINGLET SOLUTION FOR SYMMETRY    1  ( A  )    LABEL   ZDIPLEN     FREQUENCY   0.658820D-01

@ QRLRVE:  << XDIPLEN  ; ZDIPLEN  >> (   0.06588):   -1.817004173915E-03

@ QRLRVE:  << YDIPLEN  ; ZDIPLEN  >> (   0.06588):   -6.261911931331E-04

@ QRLRVE:  << ZDIPLEN  ; ZDIPLEN  >> (   0.06588):     31.4825204041    

@ QRLRVE: SINGLET SOLUTION FOR SYMMETRY    1  ( A  )    LABEL   ZDIPLEN     FREQUENCY   0.823525D-01

@ QRLRVE:  << XDIPLEN  ; ZDIPLEN  >> (   0.08235):   -1.902004114328E-03

@ QRLRVE:  << YDIPLEN  ; ZDIPLEN  >> (   0.08235):   -7.177021756218E-04

@ QRLRVE:  << ZDIPLEN  ; ZDIPLEN  >> (   0.08235):     32.0396752448    

@ QRLRVE: SINGLET SOLUTION FOR SYMMETRY    1  ( A  )    LABEL   ZDIPLEN     FREQUENCY   0.988230D-01

@ QRLRVE:  << XDIPLEN  ; ZDIPLEN  >> (   0.09882):   -2.017031712978E-03

@ QRLRVE:  << YDIPLEN  ; ZDIPLEN  >> (   0.09882):   -8.392214326805E-04

@ QRLRVE:  << ZDIPLEN  ; ZDIPLEN  >> (   0.09882):     32.7620765479    

@ QRLRVE: SINGLET SOLUTION FOR SYMMETRY    1  ( A  )    LABEL   ZDIPLEN     FREQUENCY   0.115293D+00

@ QRLRVE:  << XDIPLEN  ; ZDIPLEN  >> (   0.11529):   -2.171933565155E-03

@ QRLRVE:  << YDIPLEN  ; ZDIPLEN  >> (   0.11529):   -9.978051471659E-04

@ QRLRVE:  << ZDIPLEN  ; ZDIPLEN  >> (   0.11529):     33.6823946268    

@ QRLRVE: SINGLET SOLUTION FOR SYMMETRY    1  ( A  )    LABEL   ZDIPLEN     FREQUENCY   0.131764D+00

@ QRLRVE:  << XDIPLEN  ; ZDIPLEN  >> (   0.13176):   -2.382738817318E-03

@ QRLRVE:  << YDIPLEN  ; ZDIPLEN  >> (   0.13176):   -1.203081394370E-03

@ QRLRVE:  << ZDIPLEN  ; ZDIPLEN  >> (   0.13176):     34.8492097339    
 
 ======================================================================
 ---  L I N E A R   R E S P O N S E   F U N C T I O N S --- 
 ======================================================================

 The -<<A;B>>(omega_b) functions from vectors generated
 in a *QUADRA calculation of <<A;B,C>>(omega_b,omega_c)

 Note: the accuracy of off-diagonal elements will be linear
 in the convergence threshold THCLR =  1.00D-03


 Perturbation symmetry.     KSYMOP:           1
 Perturbation spin symmetry.TRPLET:           F
 Orbital variables.         KZWOPT:         675
 Configuration variables.   KZCONF:           0
 Total number of variables. KZVAR :         675

@ Singlet linear response function in a.u.

@ A operator, symmetry, frequency:   XDIPLEN    1 -0.000000
@ B operator, symmetry, frequency:   XDIPLEN    1  0.000000

@ Value of linear response -<<A;B>>(omega):      29.527778346538

@ Singlet linear response function in a.u.

@ A operator, symmetry, frequency:   YDIPLEN    1 -0.000000
@ B operator, symmetry, frequency:   XDIPLEN    1  0.000000

@ Value of linear response -<<A;B>>(omega):      -0.000010328167

@ Singlet linear response function in a.u.

@ A operator, symmetry, frequency:   ZDIPLEN    1 -0.000000
@ B operator, symmetry, frequency:   XDIPLEN    1  0.000000

@ Value of linear response -<<A;B>>(omega):      -0.000079640512

@ Singlet linear response function in a.u.

@ A operator, symmetry, frequency:   XDIPLEN    1 -0.016470
@ B operator, symmetry, frequency:   XDIPLEN    1  0.016470

@ Value of linear response -<<A;B>>(omega):      29.574047334174

@ Singlet linear response function in a.u.

@ A operator, symmetry, frequency:   YDIPLEN    1 -0.016470
@ B operator, symmetry, frequency:   XDIPLEN    1  0.016470

@ Value of linear response -<<A;B>>(omega):      -0.000009566384

@ Singlet linear response function in a.u.

@ A operator, symmetry, frequency:   ZDIPLEN    1 -0.016470
@ B operator, symmetry, frequency:   XDIPLEN    1  0.016470

@ Value of linear response -<<A;B>>(omega):      -0.000078989873

@ Singlet linear response function in a.u.

@ A operator, symmetry, frequency:   XDIPLEN    1 -0.032941
@ B operator, symmetry, frequency:   XDIPLEN    1  0.032941

@ Value of linear response -<<A;B>>(omega):      29.714044075688

@ Singlet linear response function in a.u.

@ A operator, symmetry, frequency:   YDIPLEN    1 -0.032941
@ B operator, symmetry, frequency:   XDIPLEN    1  0.032941

@ Value of linear response -<<A;B>>(omega):      -0.000007148998

@ Singlet linear response function in a.u.

@ A operator, symmetry, frequency:   ZDIPLEN    1 -0.032941
@ B operator, symmetry, frequency:   XDIPLEN    1  0.032941

@ Value of linear response -<<A;B>>(omega):      -0.000076893025

@ Singlet linear response function in a.u.

@ A operator, symmetry, frequency:   XDIPLEN    1 -0.049411
@ B operator, symmetry, frequency:   XDIPLEN    1  0.049411

@ Value of linear response -<<A;B>>(omega):      29.951434787572

@ Singlet linear response function in a.u.

@ A operator, symmetry, frequency:   YDIPLEN    1 -0.049411
@ B operator, symmetry, frequency:   XDIPLEN    1  0.049411

@ Value of linear response -<<A;B>>(omega):      -0.000002650454

@ Singlet linear response function in a.u.

@ A operator, symmetry, frequency:   ZDIPLEN    1 -0.049411
@ B operator, symmetry, frequency:   XDIPLEN    1  0.049411

@ Value of linear response -<<A;B>>(omega):      -0.000072884345

@ Singlet linear response function in a.u.

@ A operator, symmetry, frequency:   XDIPLEN    1 -0.065882
@ B operator, symmetry, frequency:   XDIPLEN    1  0.065882

@ Value of linear response -<<A;B>>(omega):      30.292670082879

@ Singlet linear response function in a.u.

@ A operator, symmetry, frequency:   YDIPLEN    1 -0.065882
@ B operator, symmetry, frequency:   XDIPLEN    1  0.065882

@ Value of linear response -<<A;B>>(omega):       0.000004746025

@ Singlet linear response function in a.u.

@ A operator, symmetry, frequency:   ZDIPLEN    1 -0.065882
@ B operator, symmetry, frequency:   XDIPLEN    1  0.065882

@ Value of linear response -<<A;B>>(omega):      -0.000066075717

@ Singlet linear response function in a.u.

@ A operator, symmetry, frequency:   XDIPLEN    1 -0.000000
@ B operator, symmetry, frequency:   YDIPLEN    1  0.000000

@ Value of linear response -<<A;B>>(omega):      -0.000593830228

@ Singlet linear response function in a.u.

@ A operator, symmetry, frequency:   YDIPLEN    1 -0.000000
@ B operator, symmetry, frequency:   YDIPLEN    1  0.000000

@ Value of linear response -<<A;B>>(omega):      29.528459808074

@ Singlet linear response function in a.u.

@ A operator, symmetry, frequency:   ZDIPLEN    1 -0.000000
@ B operator, symmetry, frequency:   YDIPLEN    1  0.000000

@ Value of linear response -<<A;B>>(omega):      -0.000573443656

@ Singlet linear response function in a.u.

@ A operator, symmetry, frequency:   XDIPLEN    1 -0.016470
@ B operator, symmetry, frequency:   YDIPLEN    1  0.016470

@ Value of linear response -<<A;B>>(omega):      -0.000598910288

@ Singlet linear response function in a.u.

@ A operator, symmetry, frequency:   YDIPLEN    1 -0.016470
@ B operator, symmetry, frequency:   YDIPLEN    1  0.016470

@ Value of linear response -<<A;B>>(omega):      29.574730731015

@ Singlet linear response function in a.u.

@ A operator, symmetry, frequency:   ZDIPLEN    1 -0.016470
@ B operator, symmetry, frequency:   YDIPLEN    1  0.016470

@ Value of linear response -<<A;B>>(omega):      -0.000582545504

@ Singlet linear response function in a.u.

@ A operator, symmetry, frequency:   XDIPLEN    1 -0.032941
@ B operator, symmetry, frequency:   YDIPLEN    1  0.032941

@ Value of linear response -<<A;B>>(omega):      -0.000614461278

@ Singlet linear response function in a.u.

@ A operator, symmetry, frequency:   YDIPLEN    1 -0.032941
@ B operator, symmetry, frequency:   YDIPLEN    1  0.032941

@ Value of linear response -<<A;B>>(omega):      29.714733335832

@ Singlet linear response function in a.u.

@ A operator, symmetry, frequency:   ZDIPLEN    1 -0.032941
@ B operator, symmetry, frequency:   YDIPLEN    1  0.032941

@ Value of linear response -<<A;B>>(omega):      -0.000610584473

@ Singlet linear response function in a.u.

@ A operator, symmetry, frequency:   XDIPLEN    1 -0.049411
@ B operator, symmetry, frequency:   YDIPLEN    1  0.049411

@ Value of linear response -<<A;B>>(omega):      -0.000641455724

@ Singlet linear response function in a.u.

@ A operator, symmetry, frequency:   YDIPLEN    1 -0.049411
@ B operator, symmetry, frequency:   YDIPLEN    1  0.049411

@ Value of linear response -<<A;B>>(omega):      29.952134014755

@ Singlet linear response function in a.u.

@ A operator, symmetry, frequency:   ZDIPLEN    1 -0.049411
@ B operator, symmetry, frequency:   YDIPLEN    1  0.049411

@ Value of linear response -<<A;B>>(omega):      -0.000659860039

@ Singlet linear response function in a.u.

@ A operator, symmetry, frequency:   XDIPLEN    1 -0.065882
@ B operator, symmetry, frequency:   YDIPLEN    1  0.065882

@ Value of linear response -<<A;B>>(omega):      -0.000681657381

@ Singlet linear response function in a.u.

@ A operator, symmetry, frequency:   YDIPLEN    1 -0.065882
@ B operator, symmetry, frequency:   YDIPLEN    1  0.065882

@ Value of linear response -<<A;B>>(omega):      30.293383685670

@ Singlet linear response function in a.u.

@ A operator, symmetry, frequency:   ZDIPLEN    1 -0.065882
@ B operator, symmetry, frequency:   YDIPLEN    1  0.065882

@ Value of linear response -<<A;B>>(omega):      -0.000734556962

@ Singlet linear response function in a.u.

@ A operator, symmetry, frequency:   XDIPLEN    1 -0.000000
@ B operator, symmetry, frequency:   ZDIPLEN    1  0.000000

@ Value of linear response -<<A;B>>(omega):      -0.001682708028

@ Singlet linear response function in a.u.

@ A operator, symmetry, frequency:   YDIPLEN    1 -0.000000
@ B operator, symmetry, frequency:   ZDIPLEN    1  0.000000

@ Value of linear response -<<A;B>>(omega):      -0.000479481193

@ Singlet linear response function in a.u.

@ A operator, symmetry, frequency:   ZDIPLEN    1 -0.000000
@ B operator, symmetry, frequency:   ZDIPLEN    1  0.000000

@ Value of linear response -<<A;B>>(omega):      30.558384704422

@ Singlet linear response function in a.u.

@ A operator, symmetry, frequency:   XDIPLEN    1 -0.016470
@ B operator, symmetry, frequency:   ZDIPLEN    1  0.016470

@ Value of linear response -<<A;B>>(omega):      -0.001690542989

@ Singlet linear response function in a.u.

@ A operator, symmetry, frequency:   YDIPLEN    1 -0.016470
@ B operator, symmetry, frequency:   ZDIPLEN    1  0.016470

@ Value of linear response -<<A;B>>(omega):      -0.000488089196

@ Singlet linear response function in a.u.

@ A operator, symmetry, frequency:   ZDIPLEN    1 -0.016470
@ B operator, symmetry, frequency:   ZDIPLEN    1  0.016470

@ Value of linear response -<<A;B>>(omega):      30.613850477568

@ Singlet linear response function in a.u.

@ A operator, symmetry, frequency:   XDIPLEN    1 -0.032941
@ B operator, symmetry, frequency:   ZDIPLEN    1  0.032941

@ Value of linear response -<<A;B>>(omega):      -0.001714468773

@ Singlet linear response function in a.u.

@ A operator, symmetry, frequency:   YDIPLEN    1 -0.032941
@ B operator, symmetry, frequency:   ZDIPLEN    1  0.032941

@ Value of linear response -<<A;B>>(omega):      -0.000514347803

@ Singlet linear response function in a.u.

@ A operator, symmetry, frequency:   ZDIPLEN    1 -0.032941
@ B operator, symmetry, frequency:   ZDIPLEN    1  0.032941

@ Value of linear response -<<A;B>>(omega):      30.782009617176

@ Singlet linear response function in a.u.

@ A operator, symmetry, frequency:   XDIPLEN    1 -0.049411
@ B operator, symmetry, frequency:   ZDIPLEN    1  0.049411

@ Value of linear response -<<A;B>>(omega):      -0.001755810712

@ Singlet linear response function in a.u.

@ A operator, symmetry, frequency:   YDIPLEN    1 -0.049411
@ B operator, symmetry, frequency:   ZDIPLEN    1  0.049411

@ Value of linear response -<<A;B>>(omega):      -0.000559596567

@ Singlet linear response function in a.u.

@ A operator, symmetry, frequency:   ZDIPLEN    1 -0.049411
@ B operator, symmetry, frequency:   ZDIPLEN    1  0.049411

@ Value of linear response -<<A;B>>(omega):      31.068323762533

@ Singlet linear response function in a.u.

@ A operator, symmetry, frequency:   XDIPLEN    1 -0.065882
@ B operator, symmetry, frequency:   ZDIPLEN    1  0.065882

@ Value of linear response -<<A;B>>(omega):      -0.001817004174

@ Singlet linear response function in a.u.

[...]
@ B-freq = 0.049411  C-freq = 0.049411     beta(X;Z,Y) =      0.00043789
@ B-freq = 0.049411  C-freq = 0.049411     beta(Y;Z,Y) =     -6.14141750
@ B-freq = 0.049411  C-freq = 0.049411     beta(Z;Z,Y) =      0.00212967
@ B-freq = 0.065882  C-freq = 0.049411     beta(X;Z,Y) =      0.00042437
@ B-freq = 0.065882  C-freq = 0.049411     beta(Y;Z,Y) =     -6.85808961
@ B-freq = 0.065882  C-freq = 0.049411     beta(Z;Z,Y) =      0.00413414
@ B-freq = 0.000000  C-freq = 0.065882     beta(X;X,Y) = beta(X,Y,X)
@ B-freq = 0.000000  C-freq = 0.065882     beta(Y;X,Y) = beta(Y,Y,X)
@ B-freq = 0.000000  C-freq = 0.065882     beta(Z;X,Y) = beta(Z,Y,X)
@ B-freq = 0.016470  C-freq = 0.065882     beta(X;X,Y) = beta(X,Y,X)
@ B-freq = 0.016470  C-freq = 0.065882     beta(Y;X,Y) = beta(Y,Y,X)
@ B-freq = 0.016470  C-freq = 0.065882     beta(Z;X,Y) = beta(Z,Y,X)
@ B-freq = 0.032941  C-freq = 0.065882     beta(X;X,Y) = beta(X,Y,X)
@ B-freq = 0.032941  C-freq = 0.065882     beta(Y;X,Y) = beta(Y,Y,X)
@ B-freq = 0.032941  C-freq = 0.065882     beta(Z;X,Y) = beta(Z,Y,X)
@ B-freq = 0.049411  C-freq = 0.065882     beta(X;X,Y) = beta(X,Y,X)
@ B-freq = 0.049411  C-freq = 0.065882     beta(Y;X,Y) = beta(Y,Y,X)
@ B-freq = 0.049411  C-freq = 0.065882     beta(Z;X,Y) = beta(Z,Y,X)
@ B-freq = 0.065882  C-freq = 0.065882     beta(X;X,Y) = beta(X,Y,X)
@ B-freq = 0.065882  C-freq = 0.065882     beta(Y;X,Y) = beta(Y,Y,X)
@ B-freq = 0.065882  C-freq = 0.065882     beta(Z;X,Y) = beta(Z,Y,X)
@ B-freq = 0.000000  C-freq = 0.065882     beta(X;Y,Y) = beta(X,Y,Y)
@ B-freq = 0.000000  C-freq = 0.065882     beta(Y;Y,Y) = beta(Y,Y,Y)
@ B-freq = 0.000000  C-freq = 0.065882     beta(Z;Y,Y) = beta(Z,Y,Y)
@ B-freq = 0.016470  C-freq = 0.065882     beta(X;Y,Y) = beta(X,Y,Y)
@ B-freq = 0.016470  C-freq = 0.065882     beta(Y;Y,Y) = beta(Y,Y,Y)
@ B-freq = 0.016470  C-freq = 0.065882     beta(Z;Y,Y) = beta(Z,Y,Y)
@ B-freq = 0.032941  C-freq = 0.065882     beta(X;Y,Y) = beta(X,Y,Y)
@ B-freq = 0.032941  C-freq = 0.065882     beta(Y;Y,Y) = beta(Y,Y,Y)
@ B-freq = 0.032941  C-freq = 0.065882     beta(Z;Y,Y) = beta(Z,Y,Y)
@ B-freq = 0.049411  C-freq = 0.065882     beta(X;Y,Y) = beta(X,Y,Y)
@ B-freq = 0.049411  C-freq = 0.065882     beta(Y;Y,Y) = beta(Y,Y,Y)
@ B-freq = 0.049411  C-freq = 0.065882     beta(Z;Y,Y) = beta(Z,Y,Y)
@ B-freq = 0.065882  C-freq = 0.065882     beta(X;Y,Y) =     -0.00078647
@ B-freq = 0.065882  C-freq = 0.065882     beta(Y;Y,Y) =     18.35078117
@ B-freq = 0.065882  C-freq = 0.065882     beta(Z;Y,Y) =     -8.78978805
@ B-freq = 0.000000  C-freq = 0.065882     beta(X;Z,Y) =      0.00065334
@ B-freq = 0.000000  C-freq = 0.065882     beta(Y;Z,Y) =     -5.44483417
@ B-freq = 0.000000  C-freq = 0.065882     beta(Z;Z,Y) =     -0.00068674
@ B-freq = 0.016470  C-freq = 0.065882     beta(X;Z,Y) =      0.00065561
@ B-freq = 0.016470  C-freq = 0.065882     beta(Y;Z,Y) =     -5.67350986
@ B-freq = 0.016470  C-freq = 0.065882     beta(Z;Z,Y) =      0.00007340
@ B-freq = 0.032941  C-freq = 0.065882     beta(X;Z,Y) =      0.00065503
@ B-freq = 0.032941  C-freq = 0.065882     beta(Y;Z,Y) =     -6.06352546
@ B-freq = 0.032941  C-freq = 0.065882     beta(Z;Z,Y) =      0.00126196
@ B-freq = 0.049411  C-freq = 0.065882     beta(X;Z,Y) =      0.00064902
@ B-freq = 0.049411  C-freq = 0.065882     beta(Y;Z,Y) =     -6.66470232
@ B-freq = 0.049411  C-freq = 0.065882     beta(Z;Z,Y) =      0.00303746
@ B-freq = 0.065882  C-freq = 0.065882     beta(X;Z,Y) =      0.00063320
@ B-freq = 0.065882  C-freq = 0.065882     beta(Y;Z,Y) =     -7.56213567
@ B-freq = 0.065882  C-freq = 0.065882     beta(Z;Z,Y) =      0.00566725
@ B-freq = 0.000000  C-freq = 0.000000     beta(X;X,Z) = beta(Z,X,X)
@ B-freq = 0.000000  C-freq = 0.000000     beta(Y;X,Z) = beta(Z,Y,X)
@ B-freq = 0.000000  C-freq = 0.000000     beta(Z;X,Z) = beta(Z,Z,X)
@ B-freq = 0.016470  C-freq = 0.000000     beta(X;X,Z) = beta(X,Z,X)
@ B-freq = 0.016470  C-freq = 0.000000     beta(Y;X,Z) = beta(Y,Z,X)
@ B-freq = 0.016470  C-freq = 0.000000     beta(Z;X,Z) = beta(Z,Z,X)
@ B-freq = 0.032941  C-freq = 0.000000     beta(X;X,Z) = beta(X,Z,X)
@ B-freq = 0.032941  C-freq = 0.000000     beta(Y;X,Z) = beta(Y,Z,X)
@ B-freq = 0.032941  C-freq = 0.000000     beta(Z;X,Z) = beta(Z,Z,X)
@ B-freq = 0.049411  C-freq = 0.000000     beta(X;X,Z) = beta(X,Z,X)
@ B-freq = 0.049411  C-freq = 0.000000     beta(Y;X,Z) = beta(Y,Z,X)
@ B-freq = 0.049411  C-freq = 0.000000     beta(Z;X,Z) = beta(Z,Z,X)
@ B-freq = 0.065882  C-freq = 0.000000     beta(X;X,Z) = beta(X,Z,X)
@ B-freq = 0.065882  C-freq = 0.000000     beta(Y;X,Z) = beta(Y,Z,X)
@ B-freq = 0.065882  C-freq = 0.000000     beta(Z;X,Z) = beta(Z,Z,X)
@ B-freq = 0.000000  C-freq = 0.000000     beta(X;Y,Z) = beta(Z,Y,X)
@ B-freq = 0.000000  C-freq = 0.000000     beta(Y;Y,Z) = beta(Z,Y,Y)
@ B-freq = 0.000000  C-freq = 0.000000     beta(Z;Y,Z) = beta(Z,Z,Y)
@ B-freq = 0.016470  C-freq = 0.000000     beta(X;Y,Z) = beta(X,Z,Y)
@ B-freq = 0.016470  C-freq = 0.000000     beta(Y;Y,Z) = beta(Y,Z,Y)
@ B-freq = 0.016470  C-freq = 0.000000     beta(Z;Y,Z) = beta(Z,Z,Y)
@ B-freq = 0.032941  C-freq = 0.000000     beta(X;Y,Z) = beta(X,Z,Y)
@ B-freq = 0.032941  C-freq = 0.000000     beta(Y;Y,Z) = beta(Y,Z,Y)
@ B-freq = 0.032941  C-freq = 0.000000     beta(Z;Y,Z) = beta(Z,Z,Y)
@ B-freq = 0.049411  C-freq = 0.000000     beta(X;Y,Z) = beta(X,Z,Y)
@ B-freq = 0.049411  C-freq = 0.000000     beta(Y;Y,Z) = beta(Y,Z,Y)
@ B-freq = 0.049411  C-freq = 0.000000     beta(Z;Y,Z) = beta(Z,Z,Y)
@ B-freq = 0.065882  C-freq = 0.000000     beta(X;Y,Z) = beta(X,Z,Y)
@ B-freq = 0.065882  C-freq = 0.000000     beta(Y;Y,Z) = beta(Y,Z,Y)
@ B-freq = 0.065882  C-freq = 0.000000     beta(Z;Y,Z) = beta(Z,Z,Y)
@ B-freq = 0.000000  C-freq = 0.000000     beta(X;Z,Z) = beta(Z,Z,X)
@ B-freq = 0.000000  C-freq = 0.000000     beta(Y;Z,Z) = beta(Z,Z,Y)
@ B-freq = 0.000000  C-freq = 0.000000     beta(X;Z,Z) =      0.00292639
@ B-freq = 0.000000  C-freq = 0.000000     beta(Y;Z,Z) =     -0.00063427
@ B-freq = 0.000000  C-freq = 0.000000     beta(Z;Z,Z) =    -31.52724916
@ B-freq = 0.016470  C-freq = 0.000000     beta(X;Z,Z) =      0.00289283
@ B-freq = 0.016470  C-freq = 0.000000     beta(Y;Z,Z) =     -0.00063988
@ B-freq = 0.016470  C-freq = 0.000000     beta(Z;Z,Z) =    -31.72234542
@ B-freq = 0.032941  C-freq = 0.000000     beta(X;Z,Z) =      0.00278523
@ B-freq = 0.032941  C-freq = 0.000000     beta(Y;Z,Z) =     -0.00065514
@ B-freq = 0.032941  C-freq = 0.000000     beta(Z;Z,Z) =    -32.31835252
@ B-freq = 0.049411  C-freq = 0.000000     beta(X;Z,Z) =      0.00258110
@ B-freq = 0.049411  C-freq = 0.000000     beta(Y;Z,Z) =     -0.00067476
@ B-freq = 0.049411  C-freq = 0.000000     beta(Z;Z,Z) =    -33.34876045
@ B-freq = 0.065882  C-freq = 0.000000     beta(X;Z,Z) =      0.00223652
@ B-freq = 0.065882  C-freq = 0.000000     beta(Y;Z,Z) =     -0.00068790
@ B-freq = 0.065882  C-freq = 0.000000     beta(Z;Z,Z) =    -34.87414006
@ B-freq = 0.000000  C-freq = 0.016470     beta(X;X,Z) = beta(X,Z,X)
@ B-freq = 0.000000  C-freq = 0.016470     beta(Y;X,Z) = beta(Y,Z,X)
@ B-freq = 0.000000  C-freq = 0.016470     beta(Z;X,Z) = beta(Z,Z,X)
@ B-freq = 0.016470  C-freq = 0.016470     beta(X;X,Z) = beta(X,Z,X)
@ B-freq = 0.016470  C-freq = 0.016470     beta(Y;X,Z) = beta(Y,Z,X)
@ B-freq = 0.016470  C-freq = 0.016470     beta(Z;X,Z) = beta(Z,Z,X)
@ B-freq = 0.032941  C-freq = 0.016470     beta(X;X,Z) = beta(X,Z,X)
@ B-freq = 0.032941  C-freq = 0.016470     beta(Y;X,Z) = beta(Y,Z,X)
@ B-freq = 0.032941  C-freq = 0.016470     beta(Z;X,Z) = beta(Z,Z,X)
@ B-freq = 0.049411  C-freq = 0.016470     beta(X;X,Z) = beta(X,Z,X)
@ B-freq = 0.049411  C-freq = 0.016470     beta(Y;X,Z) = beta(Y,Z,X)
@ B-freq = 0.049411  C-freq = 0.016470     beta(Z;X,Z) = beta(Z,Z,X)
@ B-freq = 0.065882  C-freq = 0.016470     beta(X;X,Z) = beta(X,Z,X)
@ B-freq = 0.065882  C-freq = 0.016470     beta(Y;X,Z) = beta(Y,Z,X)
@ B-freq = 0.065882  C-freq = 0.016470     beta(Z;X,Z) = beta(Z,Z,X)
@ B-freq = 0.000000  C-freq = 0.016470     beta(X;Y,Z) = beta(X,Z,Y)
@ B-freq = 0.000000  C-freq = 0.016470     beta(Y;Y,Z) = beta(Y,Z,Y)
@ B-freq = 0.000000  C-freq = 0.016470     beta(Z;Y,Z) = beta(Z,Z,Y)
@ B-freq = 0.016470  C-freq = 0.016470     beta(X;Y,Z) = beta(X,Z,Y)
@ B-freq = 0.016470  C-freq = 0.016470     beta(Y;Y,Z) = beta(Y,Z,Y)
@ B-freq = 0.016470  C-freq = 0.016470     beta(Z;Y,Z) = beta(Z,Z,Y)
@ B-freq = 0.032941  C-freq = 0.016470     beta(X;Y,Z) = beta(X,Z,Y)
@ B-freq = 0.032941  C-freq = 0.016470     beta(Y;Y,Z) = beta(Y,Z,Y)
@ B-freq = 0.032941  C-freq = 0.016470     beta(Z;Y,Z) = beta(Z,Z,Y)
@ B-freq = 0.049411  C-freq = 0.016470     beta(X;Y,Z) = beta(X,Z,Y)
@ B-freq = 0.049411  C-freq = 0.016470     beta(Y;Y,Z) = beta(Y,Z,Y)
@ B-freq = 0.049411  C-freq = 0.016470     beta(Z;Y,Z) = beta(Z,Z,Y)
@ B-freq = 0.065882  C-freq = 0.016470     beta(X;Y,Z) = beta(X,Z,Y)
@ B-freq = 0.065882  C-freq = 0.016470     beta(Y;Y,Z) = beta(Y,Z,Y)
@ B-freq = 0.065882  C-freq = 0.016470     beta(Z;Y,Z) = beta(Z,Z,Y)
@ B-freq = 0.000000  C-freq = 0.016470     beta(X;Z,Z) = beta(X,Z,Z)
@ B-freq = 0.000000  C-freq = 0.016470     beta(Y;Z,Z) = beta(Y,Z,Z)
@ B-freq = 0.000000  C-freq = 0.016470     beta(Z;Z,Z) = beta(Z,Z,Z)
@ B-freq = 0.016470  C-freq = 0.016470     beta(X;Z,Z) =      0.00280650
@ B-freq = 0.016470  C-freq = 0.016470     beta(Y;Z,Z) =     -0.00077768
@ B-freq = 0.016470  C-freq = 0.016470     beta(Z;Z,Z) =    -32.11787804
@ B-freq = 0.032941  C-freq = 0.016470     beta(X;Z,Z) =      0.00263543
@ B-freq = 0.032941  C-freq = 0.016470     beta(Y;Z,Z) =     -0.00093429
@ B-freq = 0.032941  C-freq = 0.016470     beta(Z;Z,Z) =    -32.93092523
@ B-freq = 0.049411  C-freq = 0.016470     beta(X;Z,Z) =      0.00234723
@ B-freq = 0.049411  C-freq = 0.016470     beta(Y;Z,Z) =     -0.00111181
@ B-freq = 0.049411  C-freq = 0.016470     beta(Z;Z,Z) =    -34.20823585
@ B-freq = 0.065882  C-freq = 0.016470     beta(X;Z,Z) =      0.00188277
@ B-freq = 0.065882  C-freq = 0.016470     beta(Y;Z,Z) =     -0.00130839
@ B-freq = 0.065882  C-freq = 0.016470     beta(Z;Z,Z) =    -36.02754421
@ B-freq = 0.000000  C-freq = 0.032941     beta(X;X,Z) = beta(X,Z,X)
@ B-freq = 0.000000  C-freq = 0.032941     beta(Y;X,Z) = beta(Y,Z,X)
@ B-freq = 0.000000  C-freq = 0.032941     beta(Z;X,Z) = beta(Z,Z,X)
@ B-freq = 0.016470  C-freq = 0.032941     beta(X;X,Z) = beta(X,Z,X)
@ B-freq = 0.016470  C-freq = 0.032941     beta(Y;X,Z) = beta(Y,Z,X)
@ B-freq = 0.016470  C-freq = 0.032941     beta(Z;X,Z) = beta(Z,Z,X)
@ B-freq = 0.032941  C-freq = 0.032941     beta(X;X,Z) = beta(X,Z,X)
@ B-freq = 0.032941  C-freq = 0.032941     beta(Y;X,Z) = beta(Y,Z,X)
@ B-freq = 0.032941  C-freq = 0.032941     beta(Z;X,Z) = beta(Z,Z,X)
@ B-freq = 0.049411  C-freq = 0.032941     beta(X;X,Z) = beta(X,Z,X)
@ B-freq = 0.049411  C-freq = 0.032941     beta(Y;X,Z) = beta(Y,Z,X)
@ B-freq = 0.049411  C-freq = 0.032941     beta(Z;X,Z) = beta(Z,Z,X)
@ B-freq = 0.065882  C-freq = 0.032941     beta(X;X,Z) = beta(X,Z,X)
@ B-freq = 0.065882  C-freq = 0.032941     beta(Y;X,Z) = beta(Y,Z,X)
@ B-freq = 0.065882  C-freq = 0.032941     beta(Z;X,Z) = beta(Z,Z,X)
@ B-freq = 0.000000  C-freq = 0.032941     beta(X;Y,Z) = beta(X,Z,Y)
@ B-freq = 0.000000  C-freq = 0.032941     beta(Y;Y,Z) = beta(Y,Z,Y)
@ B-freq = 0.000000  C-freq = 0.032941     beta(Z;Y,Z) = beta(Z,Z,Y)
@ B-freq = 0.016470  C-freq = 0.032941     beta(X;Y,Z) = beta(X,Z,Y)
@ B-freq = 0.016470  C-freq = 0.032941     beta(Y;Y,Z) = beta(Y,Z,Y)
@ B-freq = 0.016470  C-freq = 0.032941     beta(Z;Y,Z) = beta(Z,Z,Y)
@ B-freq = 0.032941  C-freq = 0.032941     beta(X;Y,Z) = beta(X,Z,Y)
@ B-freq = 0.032941  C-freq = 0.032941     beta(Y;Y,Z) = beta(Y,Z,Y)
@ B-freq = 0.032941  C-freq = 0.032941     beta(Z;Y,Z) = beta(Z,Z,Y)
@ B-freq = 0.049411  C-freq = 0.032941     beta(X;Y,Z) = beta(X,Z,Y)
@ B-freq = 0.049411  C-freq = 0.032941     beta(Y;Y,Z) = beta(Y,Z,Y)
@ B-freq = 0.049411  C-freq = 0.032941     beta(Z;Y,Z) = beta(Z,Z,Y)
@ B-freq = 0.065882  C-freq = 0.032941     beta(X;Y,Z) = beta(X,Z,Y)
@ B-freq = 0.065882  C-freq = 0.032941     beta(Y;Y,Z) = beta(Y,Z,Y)
@ B-freq = 0.065882  C-freq = 0.032941     beta(Z;Y,Z) = beta(Z,Z,Y)
@ B-freq = 0.000000  C-freq = 0.032941     beta(X;Z,Z) = beta(X,Z,Z)
@ B-freq = 0.000000  C-freq = 0.032941     beta(Y;Z,Z) = beta(Y,Z,Z)
@ B-freq = 0.000000  C-freq = 0.032941     beta(Z;Z,Z) = beta(Z,Z,Z)
@ B-freq = 0.016470  C-freq = 0.032941     beta(X;Z,Z) = beta(X,Z,Z)
@ B-freq = 0.016470  C-freq = 0.032941     beta(Y;Z,Z) = beta(Y,Z,Z)
@ B-freq = 0.016470  C-freq = 0.032941     beta(Z;Z,Z) = beta(Z,Z,Z)
@ B-freq = 0.032941  C-freq = 0.032941     beta(X;Z,Z) =      0.00238064
@ B-freq = 0.032941  C-freq = 0.032941     beta(Y;Z,Z) =     -0.00124810
@ B-freq = 0.032941  C-freq = 0.032941     beta(Z;Z,Z) =    -33.99045572
@ B-freq = 0.049411  C-freq = 0.032941     beta(X;Z,Z) =      0.00197411
@ B-freq = 0.049411  C-freq = 0.032941     beta(Y;Z,Z) =     -0.00160807
@ B-freq = 0.049411  C-freq = 0.032941     beta(Z;Z,Z) =    -35.56008883
@ B-freq = 0.065882  C-freq = 0.032941     beta(X;Z,Z) =      0.00133308
@ B-freq = 0.065882  C-freq = 0.032941     beta(Y;Z,Z) =     -0.00202458
@ B-freq = 0.065882  C-freq = 0.032941     beta(Z;Z,Z) =    -37.74010732
@ B-freq = 0.000000  C-freq = 0.049411     beta(X;X,Z) = beta(X,Z,X)
@ B-freq = 0.000000  C-freq = 0.049411     beta(Y;X,Z) = beta(Y,Z,X)
@ B-freq = 0.000000  C-freq = 0.049411     beta(Z;X,Z) = beta(Z,Z,X)
@ B-freq = 0.016470  C-freq = 0.049411     beta(X;X,Z) = beta(X,Z,X)
@ B-freq = 0.016470  C-freq = 0.049411     beta(Y;X,Z) = beta(Y,Z,X)
@ B-freq = 0.016470  C-freq = 0.049411     beta(Z;X,Z) = beta(Z,Z,X)
@ B-freq = 0.032941  C-freq = 0.049411     beta(X;X,Z) = beta(X,Z,X)
@ B-freq = 0.032941  C-freq = 0.049411     beta(Y;X,Z) = beta(Y,Z,X)
@ B-freq = 0.032941  C-freq = 0.049411     beta(Z;X,Z) = beta(Z,Z,X)
@ B-freq = 0.049411  C-freq = 0.049411     beta(X;X,Z) = beta(X,Z,X)
@ B-freq = 0.049411  C-freq = 0.049411     beta(Y;X,Z) = beta(Y,Z,X)
@ B-freq = 0.049411  C-freq = 0.049411     beta(Z;X,Z) = beta(Z,Z,X)
@ B-freq = 0.065882  C-freq = 0.049411     beta(X;X,Z) = beta(X,Z,X)
@ B-freq = 0.065882  C-freq = 0.049411     beta(Y;X,Z) = beta(Y,Z,X)
@ B-freq = 0.065882  C-freq = 0.049411     beta(Z;X,Z) = beta(Z,Z,X)
@ B-freq = 0.000000  C-freq = 0.049411     beta(X;Y,Z) = beta(X,Z,Y)
@ B-freq = 0.000000  C-freq = 0.049411     beta(Y;Y,Z) = beta(Y,Z,Y)
@ B-freq = 0.000000  C-freq = 0.049411     beta(Z;Y,Z) = beta(Z,Z,Y)
@ B-freq = 0.016470  C-freq = 0.049411     beta(X;Y,Z) = beta(X,Z,Y)
@ B-freq = 0.016470  C-freq = 0.049411     beta(Y;Y,Z) = beta(Y,Z,Y)
@ B-freq = 0.016470  C-freq = 0.049411     beta(Z;Y,Z) = beta(Z,Z,Y)
@ B-freq = 0.032941  C-freq = 0.049411     beta(X;Y,Z) = beta(X,Z,Y)
@ B-freq = 0.032941  C-freq = 0.049411     beta(Y;Y,Z) = beta(Y,Z,Y)
@ B-freq = 0.032941  C-freq = 0.049411     beta(Z;Y,Z) = beta(Z,Z,Y)
@ B-freq = 0.049411  C-freq = 0.049411     beta(X;Y,Z) = beta(X,Z,Y)
@ B-freq = 0.049411  C-freq = 0.049411     beta(Y;Y,Z) = beta(Y,Z,Y)
@ B-freq = 0.049411  C-freq = 0.049411     beta(Z;Y,Z) = beta(Z,Z,Y)
@ B-freq = 0.065882  C-freq = 0.049411     beta(X;Y,Z) = beta(X,Z,Y)
@ B-freq = 0.065882  C-freq = 0.049411     beta(Y;Y,Z) = beta(Y,Z,Y)
@ B-freq = 0.065882  C-freq = 0.049411     beta(Z;Y,Z) = beta(Z,Z,Y)
@ B-freq = 0.000000  C-freq = 0.049411     beta(X;Z,Z) = beta(X,Z,Z)
@ B-freq = 0.000000  C-freq = 0.049411     beta(Y;Z,Z) = beta(Y,Z,Z)
@ B-freq = 0.000000  C-freq = 0.049411     beta(Z;Z,Z) = beta(Z,Z,Z)
@ B-freq = 0.016470  C-freq = 0.049411     beta(X;Z,Z) = beta(X,Z,Z)
@ B-freq = 0.016470  C-freq = 0.049411     beta(Y;Z,Z) = beta(Y,Z,Z)
@ B-freq = 0.016470  C-freq = 0.049411     beta(Z;Z,Z) = beta(Z,Z,Z)
@ B-freq = 0.032941  C-freq = 0.049411     beta(X;Z,Z) = beta(X,Z,Z)
@ B-freq = 0.032941  C-freq = 0.049411     beta(Y;Z,Z) = beta(Y,Z,Z)
@ B-freq = 0.032941  C-freq = 0.049411     beta(Z;Z,Z) = beta(Z,Z,Z)
@ B-freq = 0.049411  C-freq = 0.049411     beta(X;Z,Z) =      0.00139252
@ B-freq = 0.049411  C-freq = 0.049411     beta(Y;Z,Z) =     -0.00218790
@ B-freq = 0.049411  C-freq = 0.049411     beta(Z;Z,Z) =    -37.48902306
@ B-freq = 0.065882  C-freq = 0.049411     beta(X;Z,Z) =      0.00048092
@ B-freq = 0.065882  C-freq = 0.049411     beta(Y;Z,Z) =     -0.00287975
@ B-freq = 0.065882  C-freq = 0.049411     beta(Z;Z,Z) =    -40.12650323
@ B-freq = 0.000000  C-freq = 0.065882     beta(X;X,Z) = beta(X,Z,X)
@ B-freq = 0.000000  C-freq = 0.065882     beta(Y;X,Z) = beta(Y,Z,X)
@ B-freq = 0.000000  C-freq = 0.065882     beta(Z;X,Z) = beta(Z,Z,X)
@ B-freq = 0.016470  C-freq = 0.065882     beta(X;X,Z) = beta(X,Z,X)
@ B-freq = 0.016470  C-freq = 0.065882     beta(Y;X,Z) = beta(Y,Z,X)
@ B-freq = 0.016470  C-freq = 0.065882     beta(Z;X,Z) = beta(Z,Z,X)
@ B-freq = 0.032941  C-freq = 0.065882     beta(X;X,Z) = beta(X,Z,X)
@ B-freq = 0.032941  C-freq = 0.065882     beta(Y;X,Z) = beta(Y,Z,X)
@ B-freq = 0.032941  C-freq = 0.065882     beta(Z;X,Z) = beta(Z,Z,X)
@ B-freq = 0.049411  C-freq = 0.065882     beta(X;X,Z) = beta(X,Z,X)
@ B-freq = 0.049411  C-freq = 0.065882     beta(Y;X,Z) = beta(Y,Z,X)
@ B-freq = 0.049411  C-freq = 0.065882     beta(Z;X,Z) = beta(Z,Z,X)
@ B-freq = 0.065882  C-freq = 0.065882     beta(X;X,Z) = beta(X,Z,X)
@ B-freq = 0.065882  C-freq = 0.065882     beta(Y;X,Z) = beta(Y,Z,X)
@ B-freq = 0.065882  C-freq = 0.065882     beta(Z;X,Z) = beta(Z,Z,X)
@ B-freq = 0.000000  C-freq = 0.065882     beta(X;Y,Z) = beta(X,Z,Y)
@ B-freq = 0.000000  C-freq = 0.065882     beta(Y;Y,Z) = beta(Y,Z,Y)
@ B-freq = 0.000000  C-freq = 0.065882     beta(Z;Y,Z) = beta(Z,Z,Y)
@ B-freq = 0.016470  C-freq = 0.065882     beta(X;Y,Z) = beta(X,Z,Y)
@ B-freq = 0.016470  C-freq = 0.065882     beta(Y;Y,Z) = beta(Y,Z,Y)
@ B-freq = 0.016470  C-freq = 0.065882     beta(Z;Y,Z) = beta(Z,Z,Y)
@ B-freq = 0.032941  C-freq = 0.065882     beta(X;Y,Z) = beta(X,Z,Y)
@ B-freq = 0.032941  C-freq = 0.065882     beta(Y;Y,Z) = beta(Y,Z,Y)
@ B-freq = 0.032941  C-freq = 0.065882     beta(Z;Y,Z) = beta(Z,Z,Y)
@ B-freq = 0.049411  C-freq = 0.065882     beta(X;Y,Z) = beta(X,Z,Y)
@ B-freq = 0.049411  C-freq = 0.065882     beta(Y;Y,Z) = beta(Y,Z,Y)
@ B-freq = 0.049411  C-freq = 0.065882     beta(Z;Y,Z) = beta(Z,Z,Y)
@ B-freq = 0.065882  C-freq = 0.065882     beta(X;Y,Z) = beta(X,Z,Y)
@ B-freq = 0.065882  C-freq = 0.065882     beta(Y;Y,Z) = beta(Y,Z,Y)
@ B-freq = 0.065882  C-freq = 0.065882     beta(Z;Y,Z) = beta(Z,Z,Y)
@ B-freq = 0.000000  C-freq = 0.065882     beta(X;Z,Z) = beta(X,Z,Z)
@ B-freq = 0.000000  C-freq = 0.065882     beta(Y;Z,Z) = beta(Y,Z,Z)
@ B-freq = 0.000000  C-freq = 0.065882     beta(Z;Z,Z) = beta(Z,Z,Z)
@ B-freq = 0.016470  C-freq = 0.065882     beta(X;Z,Z) = beta(X,Z,Z)
@ B-freq = 0.016470  C-freq = 0.065882     beta(Y;Z,Z) = beta(Y,Z,Z)
@ B-freq = 0.016470  C-freq = 0.065882     beta(Z;Z,Z) = beta(Z,Z,Z)
@ B-freq = 0.032941  C-freq = 0.065882     beta(X;Z,Z) = beta(X,Z,Z)
@ B-freq = 0.032941  C-freq = 0.065882     beta(Y;Z,Z) = beta(Y,Z,Z)
@ B-freq = 0.032941  C-freq = 0.065882     beta(Z;Z,Z) = beta(Z,Z,Z)
@ B-freq = 0.049411  C-freq = 0.065882     beta(X;Z,Z) = beta(X,Z,Z)
@ B-freq = 0.049411  C-freq = 0.065882     beta(Y;Z,Z) = beta(Y,Z,Z)
@ B-freq = 0.049411  C-freq = 0.065882     beta(Z;Z,Z) = beta(Z,Z,Z)
@ B-freq = 0.065882  C-freq = 0.065882     beta(X;Z,Z) =     -0.00086242
@ B-freq = 0.065882  C-freq = 0.065882     beta(Y;Z,Z) =     -0.00393056
@ B-freq = 0.065882  C-freq = 0.065882     beta(Z;Z,Z) =    -43.36357709

  Total CPU  time used in RESPONSE:  43.77 seconds
  Total wall time used in RESPONSE:  43.98 seconds


                   .-------------------------------------------.
                   | End of Dynamic Property Section (RESPONS) |
                   `-------------------------------------------'

  Total CPU  time used in DALTON:  45.56 seconds
  Total wall time used in DALTON:  45.79 seconds

 
     Date and time (Linux)  : Fri Sep 29 10:41:56 2023
     Host name              : sn-mem                                  
