

     ************************************************************************
     *************** Dalton - An Electronic Structure Program ***************
     ************************************************************************

    This is output from DALTON release Dalton2020.0 (2020)
         ( Web site: http://daltonprogram.org )

   ----------------------------------------------------------------------------

    NOTE:
     
    Dalton is an experimental code for the evaluation of molecular
    properties using (MC)SCF, DFT, CI, and CC wave functions.
    The authors accept no responsibility for the performance of
    the code or for the correctness of the results.
     
    The code (in whole or part) is provided under a licence and
    is not to be reproduced for further distribution without
    the written permission of the authors or their representatives.
     
    See the home page "http://daltonprogram.org" for further information.
     
    If results obtained with this code are published,
    the appropriate citations would be both of:
     
       K. Aidas, C. Angeli, K. L. Bak, V. Bakken, R. Bast,
       L. Boman, O. Christiansen, R. Cimiraglia, S. Coriani,
       P. Dahle, E. K. Dalskov, U. Ekstroem,
       T. Enevoldsen, J. J. Eriksen, P. Ettenhuber, B. Fernandez,
       L. Ferrighi, H. Fliegl, L. Frediani, K. Hald, A. Halkier,
       C. Haettig, H. Heiberg, T. Helgaker, A. C. Hennum,
       H. Hettema, E. Hjertenaes, S. Hoest, I.-M. Hoeyvik,
       M. F. Iozzi, B. Jansik, H. J. Aa. Jensen, D. Jonsson,
       P. Joergensen, J. Kauczor, S. Kirpekar,
       T. Kjaergaard, W. Klopper, S. Knecht, R. Kobayashi, H. Koch,
       J. Kongsted, A. Krapp, K. Kristensen, A. Ligabue,
       O. B. Lutnaes, J. I. Melo, K. V. Mikkelsen, R. H. Myhre,
       C. Neiss, C. B. Nielsen, P. Norman, J. Olsen,
       J. M. H. Olsen, A. Osted, M. J. Packer, F. Pawlowski,
       T. B. Pedersen, P. F. Provasi, S. Reine, Z. Rinkevicius,
       T. A. Ruden, K. Ruud, V. Rybkin, P. Salek, C. C. M. Samson,
       A. Sanchez de Meras, T. Saue, S. P. A. Sauer,
       B. Schimmelpfennig, K. Sneskov, A. H. Steindal,
       K. O. Sylvester-Hvid, P. R. Taylor, A. M. Teale,
       E. I. Tellgren, D. P. Tew, A. J. Thorvaldsen, L. Thoegersen,
       O. Vahtras, M. A. Watson, D. J. D. Wilson, M. Ziolkowski
       and H. Agren,
       "The Dalton quantum chemistry program system",
       WIREs Comput. Mol. Sci. 2014, 4:269–284 (doi: 10.1002/wcms.1172)
     
    and
     
       Dalton, a molecular electronic structure program,
       Release Dalton2020.0 (2020), see http://daltonprogram.org
   ----------------------------------------------------------------------------

    Authors in alphabetical order (Major contribution(s) in parenthesis):

  Kestutis Aidas,           Vilnius University,           Lithuania   (QM/MM)
  Celestino Angeli,         University of Ferrara,        Italy       (NEVPT2)
  Keld L. Bak,              UNI-C,                        Denmark     (AOSOPPA, non-adiabatic coupling, magnetic properties)
  Vebjoern Bakken,          University of Oslo,           Norway      (DALTON; geometry optimizer, symmetry detection)
  Radovan Bast,             UiT The Arctic U. of Norway,  Norway      (DALTON installation and execution frameworks)
  Pablo Baudin,             University of Valencia,       Spain       (Cholesky excitation energies)
  Linus Boman,              NTNU,                         Norway      (Cholesky decomposition and subsystems)
  Bruno N. Cabral Tenorio,  Technical Univ. of Denmark,   Denmark     (Lanczos-based CC methods)
  Ove Christiansen,         Aarhus University,            Denmark     (CC module)
  Renzo Cimiraglia,         University of Ferrara,        Italy       (NEVPT2)
  Sonia Coriani,            Technical Univ. of Denmark,   Denmark     (CC and RESPONS modules)
  Janusz Cukras,            University of Warsaw,         Poland      (MChD in RESPONS)
  Paal Dahle,               University of Oslo,           Norway      (Parallelization)
  Erik K. Dalskov,          UNI-C,                        Denmark     (SOPPA)
  Thomas Enevoldsen,        Univ. of Southern Denmark,    Denmark     (SOPPA)
  Janus J. Eriksen,         Aarhus University,            Denmark     (Polarizable embedding, TDA)
  Rasmus Faber,             Technical Univ. of Denmark,   Denmark     (Vib.avg. NMR w. SOPPA, parallel AO-SOPPA, CVS-CC and EOMCC)
  Tobias Fahleson,          KTH Stockholm,                Sweden      (Damped cubic response)
  Berta Fernandez,          U. of Santiago de Compostela, Spain       (Doublet spin, ESR in RESPONS)
  Lara Ferrighi,            Aarhus University,            Denmark     (PCM Cubic response)
  Heike Fliegl,             University of Oslo,           Norway      (CCSD(R12))
  Luca Frediani,            UiT The Arctic U. of Norway,  Norway      (PCM)
  Emmanuel Fromager,        Univ. Strasbourg,             France      (MC-srDFT)
  Bin Gao,                  UiT The Arctic U. of Norway,  Norway      (Gen1Int library)
  Andre S. P. Gomes,        CNRS/Universite de Lille,     France      (Frozen density embedding)
  Christof Haettig,         Ruhr-University Bochum,       Germany     (CC module)
  Kasper Hald,              Aarhus University,            Denmark     (CC module)
  Asger Halkier,            Aarhus University,            Denmark     (CC module)
  Frederik Beyer Hansen,    University of Copenhagen,     Denmark     (Parallel AO-SOPPA)
  Erik D. Hedegaard,        Univ. of Southern Denmark,    Denmark     (Polarizable embedding, QM/MM, and MC-srDFT)
  Hanne Heiberg,            University of Oslo,           Norway      (Geometry analysis, selected one-electron integrals)
  Trygve Helgaker,          University of Oslo,           Norway      (DALTON; ABACUS, ERI, DFT modules, London, and much more)
  Alf Christian Hennum,     University of Oslo,           Norway      (Parity violation)
  Hinne Hettema,            University of Auckland,       New Zealand (Quadratic response in RESPONS; SIRIUS supersymmetry)
  Eirik Hjertenaes,         NTNU,                         Norway      (Cholesky decomposition)
  Pi A. B. Haase,           University of Copenhagen,     Denmark     (Triplet AO-SOPPA)
  Maria Francesca Iozzi,    University of Oslo,           Norway      (RPA)
  Christoph Jacob           TU Braunschweig               Germany     (Frozen density embedding)
  Brano Jansik              Technical Univ. of Ostrava    Czech Rep.  (DFT cubic response)
  Hans Joergen Aa. Jensen,  Univ. of Southern Denmark,    Denmark     (DALTON; SIRIUS, RESPONS, ABACUS, MC-srDFT, and much more)
  Dan Jonsson,              UiT The Arctic U. of Norway,  Norway      (Cubic response in RESPONS module)
  Poul Joergensen,          Aarhus University,            Denmark     (RESPONS, ABACUS, and CC modules)
  Maciej Kaminski,          University of Warsaw,         Poland      (CPPh in RESPONS)
  Joanna Kauczor,           Linkoeping University,        Sweden      (Complex polarization propagator (CPP) module)
  Sheela Kirpekar,          Univ. of Southern Denmark,    Denmark     (Mass-velocity & Darwin integrals)
  Erik Kjellgren,           Univ. of Southern Denmark,    Denmark     (MC-srDFT)
  Wim Klopper,              KIT Karlsruhe,                Germany     (R12 code in CC, SIRIUS, and ABACUS modules)
  Stefan Knecht,            ETH Zurich,                   Switzerland (Parallel CI and MCSCF, MC-srDFT)
  Rika Kobayashi,           Australian National Univ.,    Australia   (DIIS in CC, London in MCSCF)
  Henrik Koch,              NTNU,                         Norway      (CC module, Cholesky decomposition)
  Jacob Kongsted,           Univ. of Southern Denmark,    Denmark     (Polarizable embedding, polarizable density embedding, QM/MM)
  Andrea Ligabue,           University of Modena,         Italy       (CTOCD, AOSOPPA)
  Nanna H. List             Univ. of Southern Denmark,    Denmark     (Polarizable embedding)
  Ola B. Lutnaes,           University of Oslo,           Norway      (DFT Hessian)
  Juan I. Melo,             University of Buenos Aires,   Argentina   (LRESC, Relativistic Effects on NMR Shieldings)
  Kurt V. Mikkelsen,        University of Copenhagen,     Denmark     (MC-SCRF and QM/MM)
  Rolf H. Myhre,            NTNU,                         Norway      (Subsystems and CC3)
  Christian Neiss,          Univ. Erlangen-Nuernberg,     Germany     (CCSD(R12))
  Christian B. Nielsen,     University of Copenhagen,     Denmark     (QM/MM)
  Patrick Norman,           KTH Stockholm,                Sweden      (Cubic response and complex frequency response in RESPONS)
  Jeppe Olsen,              Aarhus University,            Denmark     (SIRIUS CI/density modules)
  Jogvan Magnus H. Olsen,   Aarhus University,            Denmark     (Polarizable embedding and polarizable density embedding)
  Anders Osted,             Copenhagen University,        Denmark     (QM/MM)
  Martin J. Packer,         University of Sheffield,      UK          (SOPPA)
  Filip Pawlowski,          Kazimierz Wielki University,  Poland      (CC3)
  Morten N. Pedersen,       Univ. of Southern Denmark,    Denmark     (Polarizable embedding)
  Thomas B. Pedersen,       University of Oslo,           Norway      (Cholesky decomposition)
  Patricio F. Provasi,      University of Northeastern,   Argentina   (Analysis of coupling constants in localized orbitals)
  Peter Reinholdt,          Univ. of Southern Denmark,    Denmark     (Polarizable embedding and polarizable density embedding)
  Zilvinas Rinkevicius,     KTH Stockholm,                Sweden      (open-shell DFT, ESR)
  Elias Rudberg,            KTH Stockholm,                Sweden      (DFT grid and basis info)
  Torgeir A. Ruden,         University of Oslo,           Norway      (Numerical derivatives in ABACUS)
  Kenneth Ruud,             UiT The Arctic U. of Norway,  Norway      (DALTON; ABACUS magnetic properties and much more)
  Pawel Salek,              KTH Stockholm,                Sweden      (DALTON; DFT code)
  Claire C. M. Samson       University of Karlsruhe       Germany     (Boys localization, r12 integrals in ERI)
  Alfredo Sanchez de Meras, University of Valencia,       Spain       (CC module, Cholesky decomposition)
  Trond Saue,               Paul Sabatier University,     France      (direct Fock matrix construction)
  Stephan P. A. Sauer,      University of Copenhagen,     Denmark     (SOPPA(CCSD), SOPPA prop., AOSOPPA, vibrational g-factors)
  Bernd Schimmelpfennig,    Forschungszentrum Karlsruhe,  Germany     (AMFI module)
  Anna K. Schnack-Petersen, University of Copenhagen,     Denmark     (RPA(D) and HRPA(D) properties in AOSOPPA)
  Kristian Sneskov,         Aarhus University,            Denmark     (Polarizable embedding, QM/MM)
  Arnfinn H. Steindal,      UiT The Arctic U. of Norway,  Norway      (parallel QM/MM, polarizable embedding)
  Casper Steinmann,         Aalborg University,           Denmark     (QFIT, polarizable embedding)
  K. O. Sylvester-Hvid,     University of Copenhagen,     Denmark     (MC-SCRF)
  Peter R. Taylor,          VLSCI/Univ. of Melbourne,     Australia   (Symmetry handling ABACUS, integral transformation)
  Andrew M. Teale,          University of Nottingham,     England     (DFT-AC, DFT-D)
  David P. Tew,             University of Bristol,        England     (CCSD(R12))
  Julien Toulouse,          Sorbonne Univ.,               France      (MC-srDFT)
  Olav Vahtras,             KTH Stockholm,                Sweden      (Triplet response, spin-orbit, ESR, TDDFT, open-shell DFT)
  Lucas Visscher,           Vrije Universiteit Amsterdam, Netherlands (Frozen density embedding)
  David J. Wilson,          La Trobe University,          Australia   (DFT Hessian and DFT magnetizabilities)
  Hans Agren,               KTH Stockholm,                Sweden      (SIRIUS module, RESPONS, MC-SCRF solvation)
 --------------------------------------------------------------------------------

     Date and time (Linux)  : Thu Sep  7 17:49:00 2023
     Host name              : sn-mem                                  

 * Work memory size             :    64000000 =  488.28 megabytes.

 * Directories for basis set searches:
   1) /gpfs/projects/rjh/adrian/august_no_symmetry/dalton/hf/H2O/dipole
   2) /gpfs/projects/rjh/adrian/dalton/build/basis


Compilation information
-----------------------

 Who compiled             | ahurtado
 Host                     | sn-mem
 System                   | Linux-3.10.0-1160.24.1.el7.x86_64
 CMake generator          | Unix Makefiles
 Processor                | x86_64
 64-bit integers          | OFF
 MPI                      | ON
 Fortran compiler         | /gpfs/software/intel/oneAPI/2021_4/mpi/2021.4.0/bi
                          | n/mpif90
 Fortran compiler version | GNU Fortran (GCC) 11.2.0
 C compiler               | /gpfs/software/intel/oneAPI/2021_4/mpi/2021.4.0/bi
                          | n/mpicc
 C compiler version       | gcc (GCC) 11.2.0
 C++ compiler             | /gpfs/software/intel/oneAPI/2021_4/mpi/2021.4.0/bi
                          | n/mpicxx
 C++ compiler version     | unknown
 BLAS                     | /gpfs/software/intel/oneAPI/2021_4/mkl/2021.4.0/li
                          | b/intel64/libmkl_gf_lp64.so;/gpfs/software/intel/o
                          | neAPI/2021_4/mkl/2021.4.0/lib/intel64/libmkl_seque
                          | ntial.so;/gpfs/software/intel/oneAPI/2021_4/mkl/20
                          | 21.4.0/lib/intel64/libmkl_core.so;/usr/lib64/libpt
                          | hread.so;/usr/lib64/libm.so
 LAPACK                   | /gpfs/software/intel/oneAPI/2021_4/mkl/2021.4.0/li
                          | b/intel64/libmkl_lapack95_lp64.a;/gpfs/software/in
                          | tel/oneAPI/2021_4/mkl/2021.4.0/lib/intel64/libmkl_
                          | gf_lp64.so
 Static linking           | OFF
 Last Git revision        | 66052b3af5ea7225e31178bf9a8b031913c72190
 Git branch               | (HEAD detached at Dalton2020.0)
 Configuration time       | 2023-01-11 13:33:37.731835

 * MPI parallel run using 5 processes.


   Content of the .dal input file
 ----------------------------------

**DALTON INPUT
.RUN RESPONSE
.DIRECT
**WAVE FUNCTIONS
.HF
**PROPERTIES
**RESPONSE
*QUADRA
.DIPLEN
.FREQUENCIES
5
0.0 0.0198666875 0.039733375 0.0596000625 0.07946675
**END OF DALTON INPUT


   Content of the .mol file
 ----------------------------

BASIS
d-aug-cc-pVTZ
blah
blah
Atomtype=2 Angstrom Charge=0 Nosymmmetry
Charge=8 Atoms=1
O_a 0.000000000000 0.000000000000 0.117299997610
Charge=1 Atoms=2
H_a 0.000000000000 0.757199998838 -0.469200001024
H_b 0.000000000000 -0.757199998838 -0.469200001024


       *******************************************************************
       *********** Output from DALTON general input processing ***********
       *******************************************************************

 --------------------------------------------------------------------------------
   Overall default print level:    0
   Print level for DALTON.STAT:    1

    Parallel calculation using MPI
    AO-direct calculation (in sections where implemented)
    HERMIT 1- and 2-electron integral sections will be executed
    "Old" integral transformation used (limited to max 255 basis functions)
    Wave function sections will be executed (SIRIUS module)
    Dynamic molecular response properties section will be executed (RESPONSE module)
 --------------------------------------------------------------------------------


   ****************************************************************************
   *************** Output of molecule and basis set information ***************
   ****************************************************************************


    The two title cards from your ".mol" input:
    ------------------------------------------------------------------------
 1: blah                                                                    
 2: blah                                                                    
    ------------------------------------------------------------------------

  Coordinates are entered in Angstrom and converted to atomic units.
          - Conversion factor : 1 bohr = 0.52917721 A

  Atomic type no.    1
  --------------------
  Nuclear charge:   8.00000
  Number of symmetry independent centers:    1
  Number of basis sets to read;    2
  Basis set file used for this atomic type with Z =   8 :
     "/gpfs/projects/rjh/adrian/dalton/build/basis/aug-cc-pVTZ"

  Atomic type no.    2
  --------------------
  Nuclear charge:   1.00000
  Number of symmetry independent centers:    2
  Number of basis sets to read;    2
  Basis set file used for this atomic type with Z =   1 :
     "/gpfs/projects/rjh/adrian/dalton/build/basis/aug-cc-pVTZ"


                         SYMGRP: Point group information
                         -------------------------------

@    Point group: C1 


                                 Isotopic Masses
                                 ---------------

                           O_a        15.994915
                           H_a         1.007825
                           H_b         1.007825

                       Total mass:    18.010565 amu
                       Natural abundance:  99.730 %

 Center-of-mass coordinates (a.u.):    0.000000    0.000000    0.097627
 Center-of-mass coordinates (Angs):    0.000000    0.000000    0.051662


  Atoms and basis sets
  --------------------

  Number of atom types :    2
  Total number of atoms:    3

  Basis set used is "d-aug-cc-pVTZ" from the basis set library.

  label    atoms   charge   prim   cont     basis
  ----------------------------------------------------------------------
  O_          1    8.0000    74    62      [12s7p4d3f|6s5p4d3f]                               
  H_          2    1.0000    34    32      [7s4p3d|5s4p3d]                                    
  ----------------------------------------------------------------------
  total:      3   10.0000   142   126
  ----------------------------------------------------------------------
  Spherical harmonic basis used.

  Threshold for neglecting AO integrals:  1.00D-12


  Cartesian Coordinates (a.u.)
  ----------------------------

  Total number of coordinates:    9
  O_a     :     1  x   0.0000000000    2  y   0.0000000000    3  z   0.2216648699
  H_a     :     4  x   0.0000000000    5  y   1.4309006196    6  z  -0.8866594998
  H_b     :     7  x   0.0000000000    8  y  -1.4309006196    9  z  -0.8866594998


   Interatomic separations (in Angstrom):
   --------------------------------------

            O_a         H_a         H_b   
            ------      ------      ------
 O_a   :    0.000000
 H_a   :    0.957776    0.000000
 H_b   :    0.957776    1.514400    0.000000


  Max    interatomic separation is    1.5144 Angstrom (    2.8618 Bohr)
  between atoms    3 and    2, "H_b   " and "H_a   ".

  Min HX interatomic separation is    0.9578 Angstrom (    1.8099 Bohr)


  Bond distances (Angstrom):
  --------------------------

                  atom 1     atom 2       distance
                  ------     ------       --------
  bond distance:  H_a        O_a          0.957776
  bond distance:  H_b        O_a          0.957776


  Bond angles (degrees):
  ----------------------

                  atom 1     atom 2     atom 3         angle
                  ------     ------     ------         -----
  bond angle:     H_a        O_a        H_b          104.480




 Principal moments of inertia (u*A**2) and principal axes
 --------------------------------------------------------

   IA       0.615752          0.000000    1.000000    0.000000
   IB       1.155677          0.000000    0.000000    1.000000
   IC       1.771429          1.000000    0.000000    0.000000


 Rotational constants
 --------------------

@    The molecule is planar.

               A                   B                   C

         820751.0438         437301.3971         285294.6081 MHz
           27.377308           14.586804            9.516404 cm-1


@  Nuclear repulsion energy :    9.189533777587 Hartree


                     .---------------------------------------.
                     | Starting in Integral Section (HERMIT) |
                     `---------------------------------------'



 ***************************************************************************************
 ****************** Output from **INTEGRALS input processing (HERMIT) ******************
 ***************************************************************************************


 - Using defaults, no **INTEGRALS input found

 Default print level:        1

 Calculation of one-electron Hamiltonian integrals.

 Center of mass  (bohr):      0.000000000000      0.000000000000      0.097626894688
 Operator center (bohr):      0.000000000000      0.000000000000      0.000000000000
 Gauge origin    (bohr):      0.000000000000      0.000000000000      0.000000000000
 Dipole origin   (bohr):      0.000000000000      0.000000000000      0.000000000000


     ************************************************************************
     ************************** Output from HERINT **************************
     ************************************************************************



                      Nuclear contribution to dipole moments
                      --------------------------------------

                 au               Debye          C m (/(10**-30)

      x      0.00000000         0.00000000         0.00000000
      y      0.00000000         0.00000000         0.00000000
      z     -0.00000004        -0.00000010        -0.00000034


  Total CPU  time used in HERMIT:   0.19 seconds
  Total wall time used in HERMIT:   0.20 seconds


                        .----------------------------------.
                        | End of Integral Section (HERMIT) |
                        `----------------------------------'



                   .--------------------------------------------.
                   | Starting in Wave Function Section (SIRIUS) |
                   `--------------------------------------------'


 *** Output from Huckel module :

     Using EWMO model:          T
     Using EHT  model:          F
     Number of Huckel orbitals each symmetry:    7

 EWMO - Energy Weighted Maximum Overlap - is a Huckel type method,
        which normally is better than Extended Huckel Theory.
 Reference: Linderberg and Ohrn, Propagators in Quantum Chemistry (Wiley, 1973)

 Huckel EWMO eigenvalues for symmetry :  1
          -20.684959      -1.611341      -0.778168      -0.688462      -0.616200
           -0.232449      -0.168322

 **********************************************************************
 *SIRIUS* a direct, restricted step, second order MCSCF program       *
 **********************************************************************

 
     Date and time (Linux)  : Thu Sep  7 17:49:00 2023
     Host name              : sn-mem                                  

 Title lines from ".mol" input file:
     blah                                                                    
     blah                                                                    

 Print level on unit LUPRI =   2 is   0
 Print level on unit LUW4  =   2 is   5

@    Restricted, closed shell Hartree-Fock calculation.

@    Time-dependent Hartree-Fock calculation (random phase approximation).
 Fock matrices are calculated directly and in parallel without use of integrals on disk.

 Initial molecular orbitals are obtained according to
 ".MOSTART EWMO  " input option

     Wave function specification
     ============================
@    Wave function type        --- HF ---
@    Number of closed shell electrons          10
@    Number of electrons in active shells       0
@    Total charge of the molecule               0

@    Spin multiplicity and 2 M_S                1         0
@    Total number of symmetries                 1 (point group: C1 )
@    Reference state symmetry                   1 (irrep name : A  )

     Orbital specifications
     ======================
@    Abelian symmetry species          All |    1
@                                          |  A  
                                       --- |  ---
@    Occupied SCF orbitals               5 |    5
@    Secondary orbitals                121 |  121
@    Total number of orbitals          126 |  126
@    Number of basis functions         126 |  126

     Optimization information
     ========================
@    Number of configurations                 1
@    Number of orbital rotations            605
     ------------------------------------------
@    Total number of variables              606

     Maximum number of Fock   iterations      0
     Maximum number of DIIS   iterations     60
     Maximum number of QC-SCF iterations     60
     Threshold for SCF convergence     1.00D-05


 ***********************************************
 ***** DIIS acceleration of SCF iterations *****
 ***********************************************

 C1-DIIS algorithm; max error vectors =    8

 Iter      Total energy        Error norm    Delta(E)  DIIS dim.
 -----------------------------------------------------------------------------
   1  Screening settings (-IFTHRS, JTDIIS, DIFDEN, times)   -8    1    T  4.23D-01  4.23D-01
@  1    -75.8737058248        1.83178D+00   -7.59D+01    1
      Virial theorem: -V/T =      1.996634
@    MULPOP   O_a    -0.62; H_a     0.31; H_b     0.31; 
   1  Level shift: doubly occupied orbital energies shifted by -2.00D-01
 -----------------------------------------------------------------------------
   2  Screening settings (-IFTHRS, JTDIIS, DIFDEN, times)   -8    2    T  4.14D-01  4.15D-01
@  2    -76.0494524611        3.98925D-01   -1.76D-01    2
      Virial theorem: -V/T =      2.003953
@    MULPOP   O_a    -0.49; H_a     0.25; H_b     0.25; 
   2  Level shift: doubly occupied orbital energies shifted by -5.00D-02
 -----------------------------------------------------------------------------
   3  Screening settings (-IFTHRS, JTDIIS, DIFDEN, times)   -8    3    T  4.73D-01  4.74D-01
@  3    -76.0592984959        1.11438D-01   -9.85D-03    3
      Virial theorem: -V/T =      2.000383
@    MULPOP   O_a    -0.46; H_a     0.23; H_b     0.23; 
   3  Level shift: doubly occupied orbital energies shifted by -2.50D-02
 -----------------------------------------------------------------------------
   4  Screening settings (-IFTHRS, JTDIIS, DIFDEN, times)  -12    4    F  4.25D-01  4.25D-01
@  4    -76.0604618066        5.31531D-02   -1.16D-03    4
      Virial theorem: -V/T =      2.002224
@    MULPOP   O_a    -0.45; H_a     0.23; H_b     0.23; 
   4  Level shift: doubly occupied orbital energies shifted by -1.25D-02
 -----------------------------------------------------------------------------
   5  Screening settings (-IFTHRS, JTDIIS, DIFDEN, times)  -12    5    T  4.28D-01  4.28D-01
@  5    -76.0606145611        1.10880D-02   -1.53D-04    5
      Virial theorem: -V/T =      2.001259
@    MULPOP   O_a    -0.46; H_a     0.23; H_b     0.23; 
 -----------------------------------------------------------------------------
   6  Screening settings (-IFTHRS, JTDIIS, DIFDEN, times)  -12    6    T  4.23D-01  4.24D-01
@  6    -76.0606371359        2.62783D-03   -2.26D-05    6
      Virial theorem: -V/T =      2.001341
@    MULPOP   O_a    -0.47; H_a     0.23; H_b     0.23; 
 -----------------------------------------------------------------------------
   7  Screening settings (-IFTHRS, JTDIIS, DIFDEN, times)  -12    7    T  4.20D-01  4.21D-01
@  7    -76.0606384672        4.03716D-04   -1.33D-06    7
      Virial theorem: -V/T =      2.001366
@    MULPOP   O_a    -0.47; H_a     0.23; H_b     0.23; 
 -----------------------------------------------------------------------------
   8  Screening settings (-IFTHRS, JTDIIS, DIFDEN, times)  -12    8    T  3.92D-01  3.92D-01
@  8    -76.0606384944        6.02899D-05   -2.71D-08    8
      Virial theorem: -V/T =      2.001367
@    MULPOP   O_a    -0.47; H_a     0.23; H_b     0.23; 
 -----------------------------------------------------------------------------
   9  Screening settings (-IFTHRS, JTDIIS, DIFDEN, times)  -12    9    T  4.16D-01  4.16D-01
@  9    -76.0606384949        1.08197D-05   -5.02D-10    8
      Virial theorem: -V/T =      2.001367
@    MULPOP   O_a    -0.47; H_a     0.23; H_b     0.23; 
 -----------------------------------------------------------------------------
  10  Screening settings (-IFTHRS, JTDIIS, DIFDEN, times)  -12   10    T  4.29D-01  4.30D-01
@ 10    -76.0606384949        2.36362D-06   -1.32D-11    8

@ *** DIIS converged in  10 iterations !
@     Converged SCF energy, gradient:    -76.060638494875    2.36D-06
    - total time used in SIRFCK :              0.00 seconds


 *** SCF orbital energy analysis ***

 Only the 20 lowest virtual orbital energies printed in each symmetry.

 Number of electrons :   10
 Orbital occupations :    5

 Sym       Hartree-Fock orbital energies

1 A     -20.56718682    -1.35328819    -0.71743487    -0.58486544    -0.51029628
          0.00682136     0.01196962     0.02999921     0.03519867     0.04185359
          0.04408331     0.06977139     0.07250625     0.07482594     0.08694652
          0.08792577     0.10103291     0.10694775     0.11507142     0.18470542
          0.18975096     0.18992713     0.20054968     0.21067974     0.21744105

    E(LUMO) :     0.00682136 au (symmetry 1)
  - E(HOMO) :    -0.51029628 au (symmetry 1)
  ------------------------------------------
    gap     :     0.51711764 au

 --- Writing SIRIFC interface file

 CPU and wall time for SCF :       4.420       4.433


                       .-----------------------------------.
                       | --- Final results from SIRIUS --- |
                       `-----------------------------------'


@    Spin multiplicity:           1
@    Spatial symmetry:            1 ( irrep  A   in C1  )
@    Total charge of molecule:    0

@    Final HF energy:             -76.060638494875                 
@    Nuclear repulsion:             9.189533777587
@    Electronic energy:           -85.250172272462

@    Final gradient norm:           0.000002363617

 
     Date and time (Linux)  : Thu Sep  7 17:49:05 2023
     Host name              : sn-mem                                  

File label for MO orbitals:   7Sep23   FOCKDIIS

 (Only coefficients > 0.0100 are printed.)

 Molecular orbitals for symmetry species 1  (A  )
 ------------------------------------------------

    Orbital         1        2        3        4        5        6        7
   1 O_a :1s    -0.9988   0.0084  -0.0000  -0.0044  -0.0000  -0.0003   0.0000
   2 O_a :1s     0.0025  -0.8673   0.0000  -0.3105  -0.0000  -0.0414   0.0000
   4 O_a :1s     0.0003   0.0328   0.0000  -0.2447   0.0000  -0.1127  -0.0000
   5 O_a :1s    -0.0019  -0.0631  -0.0000  -0.0899  -0.0000  -0.7208  -0.0000
   6 O_a :1s    -0.0010  -0.0593  -0.0000   0.0126  -0.0000  -4.2533  -0.0000
   7 O_a :2px   -0.0000  -0.0000   0.0000  -0.0000   0.9152  -0.0000   0.0000
   8 O_a :2py    0.0000  -0.0000  -0.7350  -0.0000   0.0000  -0.0000   0.0160
   9 O_a :2pz    0.0048   0.1154   0.0000  -0.8078  -0.0000   0.0337  -0.0000
  11 O_a :2py   -0.0000   0.0000   0.0216   0.0000   0.0000   0.0000   0.0064
  12 O_a :2pz   -0.0039   0.0066  -0.0000   0.0159   0.0000   0.0043   0.0000
  13 O_a :2px    0.0000   0.0000  -0.0000   0.0000   0.0313   0.0000  -0.0000
  14 O_a :2py   -0.0000   0.0000   0.1125  -0.0000   0.0000  -0.0000   0.1431
  15 O_a :2pz   -0.0019  -0.0299   0.0000   0.0825   0.0000   0.0202   0.0000
  16 O_a :2px   -0.0000  -0.0000   0.0000  -0.0000   0.0682  -0.0000   0.0000
  17 O_a :2py    0.0000   0.0000   0.0150  -0.0000   0.0000  -0.0000   0.5408
  20 O_a :2py    0.0000   0.0000  -0.0040   0.0000  -0.0000  -0.0000   1.4989
  21 O_a :2pz   -0.0001   0.0012   0.0000  -0.0014   0.0000  -0.0498   0.0000
  23 O_a :3d1-  -0.0000   0.0000   0.0128  -0.0000   0.0000  -0.0000   0.0000
  28 O_a :3d1-   0.0000  -0.0000   0.0223   0.0000  -0.0000   0.0000  -0.0070
  29 O_a :3d0    0.0001  -0.0035   0.0000   0.0163   0.0000  -0.0007   0.0000
  30 O_a :3d1+   0.0000   0.0000  -0.0000   0.0000  -0.0147   0.0000  -0.0000
  33 O_a :3d1-  -0.0000  -0.0000  -0.0178   0.0000  -0.0000   0.0000  -0.0391
  36 O_a :3d2+   0.0003  -0.0077   0.0000   0.0222  -0.0000  -0.0031   0.0000
  38 O_a :3d1-  -0.0000  -0.0000  -0.0057   0.0000   0.0000   0.0000  -0.0493
  39 O_a :3d0    0.0003   0.0019   0.0000   0.0022  -0.0000   0.0208   0.0000
  41 O_a :3d2+   0.0003   0.0006   0.0000  -0.0010   0.0000   0.0246  -0.0000
  63 H_a :1s    -0.0021  -0.3723  -0.5888   0.3563   0.0000   0.0030   0.0072
  64 H_a :1s     0.0000   0.1033   0.0500   0.0307  -0.0000   0.0041  -0.0769
  65 H_a :1s     0.0019   0.1679   0.2213  -0.0696  -0.0000   0.2100  -0.2766
  66 H_a :1s     0.0006   0.0362   0.1072  -0.0057   0.0000   1.9950  -3.5416
  67 H_a :1s     0.0000   0.0006   0.0035  -0.0003   0.0000   0.7123  -6.5499
  68 H_a :2px    0.0000   0.0000  -0.0000   0.0000   0.0110   0.0000  -0.0000
  69 H_a :2py    0.0001   0.0109   0.0100  -0.0102  -0.0000   0.0015   0.0005
  70 H_a :2pz   -0.0001  -0.0077  -0.0130  -0.0010   0.0000  -0.0008   0.0003
  71 H_a :2px   -0.0000  -0.0000   0.0000  -0.0000   0.0266  -0.0000   0.0000
  72 H_a :2py    0.0008   0.0081   0.0195  -0.0357   0.0000  -0.0052   0.0107
  73 H_a :2pz   -0.0004  -0.0056  -0.0272   0.0055  -0.0000   0.0038  -0.0184
  75 H_a :2py    0.0003  -0.0128  -0.0360   0.0025  -0.0000  -0.0524  -0.0577
  76 H_a :2pz    0.0005   0.0131   0.0151  -0.0131  -0.0000   0.0728  -0.0788
  77 H_a :2px   -0.0000  -0.0000   0.0000  -0.0000  -0.0104  -0.0000   0.0000
  78 H_a :2py   -0.0000  -0.0069  -0.0250   0.0022  -0.0000  -0.3064   0.1999
  79 H_a :2pz    0.0002   0.0062   0.0082   0.0002   0.0000   0.3411  -0.4327
  91 H_a :3d1-  -0.0001  -0.0025  -0.0065   0.0018   0.0000  -0.0283   0.0115
  92 H_a :3d0    0.0001   0.0002  -0.0014  -0.0007  -0.0000   0.0175  -0.0300
  94 H_a :3d2+  -0.0000  -0.0024  -0.0059   0.0025  -0.0000  -0.0372  -0.0201
  95 H_b :1s    -0.0021  -0.3723   0.5888   0.3563   0.0000   0.0030  -0.0072
  96 H_b :1s     0.0000   0.1033  -0.0500   0.0307  -0.0000   0.0041   0.0769
  97 H_b :1s     0.0019   0.1679  -0.2213  -0.0696  -0.0000   0.2100   0.2766
  98 H_b :1s     0.0006   0.0362  -0.1072  -0.0057   0.0000   1.9950   3.5416
  99 H_b :1s     0.0000   0.0006  -0.0035  -0.0003  -0.0000   0.7123   6.5499
 100 H_b :2px    0.0000   0.0000  -0.0000   0.0000   0.0110   0.0000  -0.0000
 101 H_b :2py   -0.0001  -0.0109   0.0100   0.0102   0.0000  -0.0015   0.0005
 102 H_b :2pz   -0.0001  -0.0077   0.0130  -0.0010   0.0000  -0.0008  -0.0003
 103 H_b :2px   -0.0000  -0.0000   0.0000  -0.0000   0.0266  -0.0000   0.0000
 104 H_b :2py   -0.0008  -0.0081   0.0195   0.0357  -0.0000   0.0052   0.0107
 105 H_b :2pz   -0.0004  -0.0056   0.0272   0.0055  -0.0000   0.0038   0.0184
 107 H_b :2py   -0.0003   0.0128  -0.0360  -0.0025   0.0000   0.0524  -0.0577
 108 H_b :2pz    0.0005   0.0131  -0.0151  -0.0131  -0.0000   0.0728   0.0788
 109 H_b :2px   -0.0000  -0.0000   0.0000  -0.0000  -0.0104  -0.0000   0.0000
 110 H_b :2py    0.0000   0.0069  -0.0250  -0.0022   0.0000   0.3064   0.1999
 111 H_b :2pz    0.0002   0.0062  -0.0082   0.0002   0.0000   0.3411   0.4327
 123 H_b :3d1-   0.0001   0.0025  -0.0065  -0.0018  -0.0000   0.0283   0.0115
 124 H_b :3d0    0.0001   0.0002   0.0014  -0.0007  -0.0000   0.0175   0.0300
 126 H_b :3d2+  -0.0000  -0.0024   0.0059   0.0025  -0.0000  -0.0372   0.0201

    Orbital         8        9       10       11       12       13       14
   2 O_a :1s     0.0425  -0.0000   0.0868  -0.0000   0.0000   0.0084  -0.0000
   4 O_a :1s    -0.5131   0.0000  -0.1362   0.0000  -0.0000  -0.0314   0.0000
   5 O_a :1s    -2.7267  -0.0000  -1.4172   0.0000   0.0000  -1.7734   0.0000
   6 O_a :1s   -17.5855  -0.0000  -9.3371   0.0000   0.0000 -11.5389  -0.0000
   7 O_a :2px    0.0000   0.0436   0.0000  -0.0000  -0.0000  -0.0000   0.0000
   8 O_a :2py   -0.0000   0.0000  -0.0000  -0.0590  -0.0375   0.0000  -0.0000
   9 O_a :2pz   -0.0676  -0.0000  -0.0408   0.0000  -0.0000  -0.0034   0.0000
  11 O_a :2py    0.0000   0.0000   0.0000   0.0205  -0.0021  -0.0000   0.0000
  12 O_a :2pz    0.0230   0.0000   0.0042  -0.0000   0.0000   0.0037  -0.0000
  13 O_a :2px   -0.0000  -0.0740  -0.0000   0.0000   0.0000   0.0000  -0.0000
  14 O_a :2py   -0.0000   0.0000  -0.0000   0.3935  -0.4375  -0.0000   0.0000
  15 O_a :2pz    0.2344   0.0000  -0.1298  -0.0000  -0.0000  -0.1605  -0.0000
  16 O_a :2px    0.0000  -0.7669   0.0000  -0.0000  -0.0000  -0.0000   0.0000
  17 O_a :2py    0.0000   0.0000  -0.0000   1.4347  -1.5362  -0.0000  -0.0000
  18 O_a :2pz    0.7152  -0.0000  -0.7839  -0.0000  -0.0000  -0.8305  -0.0000
  19 O_a :2px   -0.0000  -2.3161  -0.0000   0.0000   0.0000   0.0000   0.0000
  20 O_a :2py    0.0000  -0.0000  -0.0000   4.7081  -2.0390  -0.0000  -0.0000
  21 O_a :2pz    2.4135   0.0000  -1.4212  -0.0000   0.0000  -0.3791  -0.0000
  28 O_a :3d1-   0.0000  -0.0000  -0.0000  -0.0176   0.0159  -0.0000  -0.0000
  31 O_a :3d2+   0.0130  -0.0000  -0.0022  -0.0000  -0.0000   0.0026  -0.0000
  32 O_a :3d2-  -0.0000  -0.0000  -0.0000   0.0000   0.0000   0.0000  -0.2053
  33 O_a :3d1-   0.0000  -0.0000   0.0000  -0.0951   0.3937   0.0000  -0.0000
  34 O_a :3d0   -0.0166  -0.0000   0.0328   0.0000  -0.0000   0.1859   0.0000
  35 O_a :3d1+   0.0000   0.0134   0.0000  -0.0000  -0.0000  -0.0000   0.0000
  36 O_a :3d2+   0.0302  -0.0000  -0.0454  -0.0000  -0.0000   0.1804  -0.0000
  37 O_a :3d2-  -0.0000   0.0000  -0.0000   0.0000   0.0000   0.0000  -0.3830
  38 O_a :3d1-  -0.0000   0.0000   0.0000  -0.1048   0.5584   0.0000   0.0000
  39 O_a :3d0   -0.0232  -0.0000   0.1336   0.0000  -0.0000   0.4357   0.0000
  40 O_a :3d1+   0.0000   0.0669   0.0000  -0.0000  -0.0000  -0.0000   0.0000
  41 O_a :3d2+   0.0165   0.0000   0.0287  -0.0000  -0.0000   0.4358  -0.0000
  50 O_a :4f2-   0.0000   0.0000   0.0000  -0.0000  -0.0000  -0.0000   0.0116
  51 O_a :4f1-  -0.0000   0.0000   0.0000  -0.0011  -0.0195  -0.0000   0.0000
  52 O_a :4f0    0.0005   0.0000   0.0004   0.0000   0.0000  -0.0110   0.0000
  56 O_a :4f3-  -0.0000  -0.0000   0.0000  -0.0235   0.0441   0.0000   0.0000
  57 O_a :4f2-   0.0000   0.0000   0.0000  -0.0000  -0.0000  -0.0000   0.0748
  58 O_a :4f1-  -0.0000   0.0000  -0.0000  -0.0038  -0.1087  -0.0000   0.0000
  59 O_a :4f0   -0.0058   0.0000   0.0108   0.0000   0.0000  -0.0610   0.0000
  61 O_a :4f2+  -0.0063   0.0000   0.0264   0.0000   0.0000  -0.0500   0.0000
  62 O_a :4f3+   0.0000   0.0117   0.0000  -0.0000  -0.0000  -0.0000   0.0000
  63 H_a :1s    -0.0014   0.0000  -0.0143  -0.0070  -0.0016   0.0166   0.0000
  64 H_a :1s     0.1457  -0.0000  -0.1121  -0.2019   0.4477   0.0880  -0.0000
  65 H_a :1s     1.0194  -0.0000   0.1546  -0.8243   0.7601   1.0408  -0.0000
  66 H_a :1s     8.7468   0.0000   4.0187 -13.1533  15.8019   6.1489  -0.0000
  67 H_a :1s     0.6052   0.0000   0.6157  -6.2448   0.7129   0.0309   0.0000
  71 H_a :2px    0.0000   0.0088   0.0000  -0.0000  -0.0000  -0.0000   0.0768
  72 H_a :2py   -0.0691   0.0000  -0.0027   0.0363  -0.0471   0.0462   0.0000
  73 H_a :2pz    0.0451  -0.0000   0.0101  -0.0596  -0.0059   0.0712   0.0000
  74 H_a :2px    0.0000   0.1765   0.0000  -0.0000  -0.0000  -0.0000   0.8952
  75 H_a :2py   -0.2604  -0.0000  -0.2048  -0.0861   0.3218   0.5499   0.0000
  76 H_a :2pz    0.1477  -0.0000   0.3689  -0.2917  -0.7251   0.5155   0.0000
  77 H_a :2px    0.0000   0.9546   0.0000  -0.0000  -0.0000  -0.0000   3.4392
  78 H_a :2py   -0.8223  -0.0000  -1.2679   1.2348  -2.3891   1.8335  -0.0000
  79 H_a :2pz    0.5840   0.0000   1.5497  -1.7041  -2.3436   1.4870   0.0000
  85 H_a :3d2-  -0.0000  -0.0073  -0.0000   0.0000   0.0000   0.0000  -0.0498
  86 H_a :3d1-  -0.0194  -0.0000  -0.0298   0.0099   0.0477  -0.0026  -0.0000
  87 H_a :3d0   -0.0050  -0.0000   0.0090  -0.0245  -0.0313   0.0495   0.0000
  88 H_a :3d1+   0.0000   0.0086   0.0000  -0.0000  -0.0000  -0.0000   0.0502
  89 H_a :3d2+  -0.0180  -0.0000  -0.0065  -0.0167   0.0364   0.0389  -0.0000
  90 H_a :3d2-  -0.0000  -0.0992  -0.0000   0.0000   0.0000   0.0000  -0.5109
  91 H_a :3d1-  -0.0296   0.0000  -0.1498   0.0673   0.4884  -0.0185  -0.0000
  92 H_a :3d0   -0.0278  -0.0000   0.0758  -0.0873  -0.0890   0.3105   0.0000
  93 H_a :3d1+   0.0000   0.1323   0.0000  -0.0000  -0.0000  -0.0000   0.1145
  94 H_a :3d2+   0.0100  -0.0000  -0.1597  -0.0511   0.0419   0.3272  -0.0000
  95 H_b :1s    -0.0014   0.0000  -0.0143   0.0070   0.0016   0.0166  -0.0000
  96 H_b :1s     0.1457  -0.0000  -0.1121   0.2019  -0.4477   0.0880  -0.0000
  97 H_b :1s     1.0194  -0.0000   0.1546   0.8243  -0.7601   1.0408   0.0000
  98 H_b :1s     8.7468   0.0000   4.0187  13.1533 -15.8019   6.1489   0.0000
  99 H_b :1s     0.6052  -0.0000   0.6157   6.2448  -0.7129   0.0309  -0.0000
 103 H_b :2px    0.0000   0.0088   0.0000  -0.0000  -0.0000  -0.0000  -0.0768
 104 H_b :2py    0.0691  -0.0000   0.0027   0.0363  -0.0471  -0.0462  -0.0000
 105 H_b :2pz    0.0451  -0.0000   0.0101   0.0596   0.0059   0.0712  -0.0000
 106 H_b :2px    0.0000   0.1765   0.0000  -0.0000  -0.0000  -0.0000  -0.8952
 107 H_b :2py    0.2604   0.0000   0.2048  -0.0861   0.3218  -0.5499   0.0000
 108 H_b :2pz    0.1477  -0.0000   0.3689   0.2917   0.7251   0.5155   0.0000
 109 H_b :2px    0.0000   0.9546   0.0000  -0.0000  -0.0000  -0.0000  -3.4392
 110 H_b :2py    0.8223   0.0000   1.2679   1.2348  -2.3891  -1.8335   0.0000
 111 H_b :2pz    0.5840   0.0000   1.5497   1.7041   2.3436   1.4870   0.0000
 117 H_b :3d2-   0.0000   0.0073   0.0000  -0.0000  -0.0000  -0.0000  -0.0498
 118 H_b :3d1-   0.0194   0.0000   0.0298   0.0099   0.0477   0.0026   0.0000
 119 H_b :3d0   -0.0050  -0.0000   0.0090   0.0245   0.0313   0.0495  -0.0000
 120 H_b :3d1+   0.0000   0.0086   0.0000  -0.0000  -0.0000  -0.0000  -0.0502
 121 H_b :3d2+  -0.0180  -0.0000  -0.0065   0.0167  -0.0364   0.0389  -0.0000
 122 H_b :3d2-   0.0000   0.0992   0.0000  -0.0000  -0.0000  -0.0000  -0.5109
 123 H_b :3d1-   0.0296  -0.0000   0.1498   0.0673   0.4884   0.0185   0.0000
 124 H_b :3d0   -0.0278  -0.0000   0.0758   0.0873   0.0890   0.3105  -0.0000
 125 H_b :3d1+   0.0000   0.1323   0.0000  -0.0000  -0.0000  -0.0000  -0.1145
 126 H_b :3d2+   0.0100  -0.0000  -0.1597   0.0511  -0.0419   0.3272  -0.0000

    Orbital        15
   7 O_a :2px    0.0888
  10 O_a :2px   -0.0153
  13 O_a :2px    0.5097
  16 O_a :2px    3.2455
  19 O_a :2px    2.9605
  35 O_a :3d1+  -0.1720
  40 O_a :3d1+  -0.4910
  55 O_a :4f3+  -0.0134
  60 O_a :4f1+   0.0318
  62 O_a :4f3+  -0.0572
  71 H_a :2px   -0.0920
  74 H_a :2px   -0.9456
  77 H_a :2px   -2.5630
  85 H_a :3d2-   0.0738
  88 H_a :3d1+  -0.0515
  90 H_a :3d2-   0.3006
  93 H_a :3d1+  -0.1658
 103 H_b :2px   -0.0920
 106 H_b :2px   -0.9456
 109 H_b :2px   -2.5630
 117 H_b :3d2-  -0.0738
 120 H_b :3d1+  -0.0515
 122 H_b :3d2-  -0.3006
 125 H_b :3d1+  -0.1658

  Total CPU  time used in SIRIUS :   4.52 seconds
  Total wall time used in SIRIUS :   4.53 seconds

 
     Date and time (Linux)  : Thu Sep  7 17:49:05 2023
     Host name              : sn-mem                                  


                     .---------------------------------------.
                     | End of Wave Function Section (SIRIUS) |
                     `---------------------------------------'



                 .------------------------------------------------.
                 | Starting in Dynamic Property Section (RESPONS) |
                 `------------------------------------------------'


 ----------------------------------------------------------------------------------------
  RESPONSE  -  an MCSCF, MC-srDFT, DFT, SOPPA and SOPPA-srDFT response property program
 ----------------------------------------------------------------------------------------


 -------- OUTPUT FROM RESPONSE INPUT PROCESSING --------




 Quadratic Response calculation
 ------------------------------

 First hyperpolarizability calculation : HYPCAL= T

 Spin of operator A , ISPINA=    0
 Spin of operator B , ISPINB=    0
 Spin of operator C , ISPINC=    0

  5 B-frequencies  0.000000D+00  1.986669D-02  3.973338D-02  5.960006D-02  7.946675D-02
  5 C-frequencies  0.000000D+00  1.986669D-02  3.973338D-02  5.960006D-02  7.946675D-02


 Print level                                    : IPRHYP =   2
 Maximum number of iterations in lin.rsp. solver: MAXITL =  60
 Threshold for convergence of linear resp. eq.s : THCLR  = 1.000D-03
 Maximum iterations in optimal orbital algorithm: MAXITO =   5
 Direct one-index transformation                : DIROIT = T

    3 A OPERATORS OF SYMMETRY NO:    1 AND LABELS:

          XDIPLEN 
          YDIPLEN 
          ZDIPLEN 

    3 B OPERATORS OF SYMMETRY NO:    1 AND LABELS:

          XDIPLEN 
          YDIPLEN 
          ZDIPLEN 

    3 C OPERATORS OF SYMMETRY NO:    1 AND LABELS:

          XDIPLEN 
          YDIPLEN 
          ZDIPLEN 


   SCF energy         :      -76.060638494875249
 -- inactive part     :      -85.250172272462095
 -- nuclear repulsion :        9.189533777586849


                     ***************************************
                     *** RHF response calculation (TDHF) ***
                     ***************************************



 Linear response calculations for quadratic response
 - singlet property operator of symmetry    1  ( A  )


 Perturbation symmetry.     KSYMOP:           1
 Perturbation spin symmetry.TRPLET:           F
 Orbital variables.         KZWOPT:         605
 Configuration variables.   KZCONF:           0
 Total number of variables. KZVAR :         605


 QRLRVE -- linear response calculation for symmetry  1  ( A  )
 QRLRVE -- operator label : XDIPLEN 
 QRLRVE -- operator spin  :   0
 QRLRVE -- frequencies :  0.000000  0.019867  0.039733  0.059600  0.079467
                          0.099333  0.119200  0.139067  0.158934



 ---  SOLVING SETS OF LINEAR EQUATIONS FOR LINEAR RESPONSE PROPERTIES ---

 Operator symmetry = 1  ( A  ); triplet =   F


 ** RSPCTL MICROITERATION NUMBER    1

       No.  Residual tot.,    conf., and orb.    Bnorm      Frequency 
      ----------------------------------------------------------------
         1    6.94585D-01  0.00D+00  6.95D-01  2.36D+00    0.00000D+00
         2    6.95425D-01  0.00D+00  6.95D-01  2.37D+00    1.98667D-02
         3    6.97977D-01  0.00D+00  6.98D-01  2.39D+00    3.97334D-02
         4    7.02334D-01  0.00D+00  7.02D-01  2.42D+00    5.96001D-02
         5    7.08664D-01  0.00D+00  7.09D-01  2.47D+00    7.94668D-02
         6    7.17227D-01  0.00D+00  7.17D-01  2.53D+00    9.93334D-02
         7    7.28408D-01  0.00D+00  7.28D-01  2.61D+00    1.19200D-01
         8    7.42766D-01  0.00D+00  7.43D-01  2.72D+00    1.39067D-01
         9    7.61122D-01  0.00D+00  7.61D-01  2.85D+00    1.58934D-01

 ** RSPCTL MICROITERATION NUMBER    2

       No.  Residual tot.,    conf., and orb.    Bnorm      Frequency 
      ----------------------------------------------------------------
         1    6.77763D-02  0.00D+00  6.78D-02  2.46D+00    0.00000D+00
         2    6.81963D-02  0.00D+00  6.82D-02  2.46D+00    1.98667D-02
         3    6.94800D-02  0.00D+00  6.95D-02  2.49D+00    3.97334D-02
         4    7.17006D-02  0.00D+00  7.17D-02  2.53D+00    5.96001D-02
         5    7.49915D-02  0.00D+00  7.50D-02  2.59D+00    7.94668D-02
         6    7.95650D-02  0.00D+00  7.96D-02  2.67D+00    9.93334D-02
         7    8.57466D-02  0.00D+00  8.57D-02  2.77D+00    1.19200D-01
         8    9.40340D-02  0.00D+00  9.40D-02  2.91D+00    1.39067D-01
         9    1.05204D-01  0.00D+00  1.05D-01  3.09D+00    1.58934D-01

 ** RSPCTL MICROITERATION NUMBER    3

       No.  Residual tot.,    conf., and orb.    Bnorm      Frequency 
      ----------------------------------------------------------------
         1    4.56839D-03  0.00D+00  4.57D-03  2.46D+00    0.00000D+00
         2    4.64023D-03  0.00D+00  4.64D-03  2.46D+00    1.98667D-02
         3    4.85745D-03  0.00D+00  4.86D-03  2.49D+00    3.97334D-02
         4    5.22606D-03  0.00D+00  5.23D-03  2.53D+00    5.96001D-02
         5    5.75923D-03  0.00D+00  5.76D-03  2.59D+00    7.94668D-02
         6    6.48162D-03  0.00D+00  6.48D-03  2.67D+00    9.93334D-02
         7    7.43581D-03  0.00D+00  7.44D-03  2.78D+00    1.19200D-01
         8    8.69252D-03  0.00D+00  8.69D-03  2.92D+00    1.39067D-01
         9    1.03687D-02  0.00D+00  1.04D-02  3.10D+00    1.58934D-01

 ** RSPCTL MICROITERATION NUMBER    4

       No.  Residual tot.,    conf., and orb.    Bnorm      Frequency 
      ----------------------------------------------------------------
         1    6.93876D-04  0.00D+00  6.94D-04  2.46D+00    0.00000D+00
         2    7.03540D-04  0.00D+00  7.04D-04  2.46D+00    1.98667D-02
         3    7.32872D-04  0.00D+00  7.33D-04  2.49D+00    3.97334D-02
         4    7.82979D-04  0.00D+00  7.83D-04  2.53D+00    5.96001D-02
         5    8.56016D-04  0.00D+00  8.56D-04  2.59D+00    7.94668D-02
         6    9.55662D-04  0.00D+00  9.56D-04  2.67D+00    9.93334D-02
         7    1.08788D-03  0.00D+00  1.09D-03  2.78D+00    1.19200D-01
         8    1.26216D-03  0.00D+00  1.26D-03  2.92D+00    1.39067D-01
         9    1.49376D-03  0.00D+00  1.49D-03  3.10D+00    1.58934D-01

 *** THE REQUESTED    9 SOLUTION VECTORS CONVERGED

 Convergence of RSP solution vectors, threshold = 1.00D-03
 ---------------------------------------------------------------
 (dimension of paired reduced space:   72)
 RSP solution vector no.    1; norm of residual   2.82D-04
 RSP solution vector no.    2; norm of residual   2.85D-04
 RSP solution vector no.    3; norm of residual   2.95D-04
 RSP solution vector no.    4; norm of residual   3.10D-04
 RSP solution vector no.    5; norm of residual   3.31D-04
 RSP solution vector no.    6; norm of residual   3.58D-04
 RSP solution vector no.    7; norm of residual   3.92D-04
 RSP solution vector no.    8; norm of residual   4.33D-04
 RSP solution vector no.    9; norm of residual   4.82D-04

 *** RSPCTL MICROITERATIONS CONVERGED

@ QRLRVE: SINGLET SOLUTION FOR SYMMETRY    1  ( A  )    LABEL   XDIPLEN     FREQUENCY   0.000000D+00

@ QRLRVE:  << XDIPLEN  ; XDIPLEN  >> (   0.00000):     7.91385743866    

@ QRLRVE:  << YDIPLEN  ; XDIPLEN  >> (   0.00000):    4.718630429230E-16

@ QRLRVE:  << ZDIPLEN  ; XDIPLEN  >> (   0.00000):   -4.967568841295E-16

@ QRLRVE: SINGLET SOLUTION FOR SYMMETRY    1  ( A  )    LABEL   XDIPLEN     FREQUENCY   0.198667D-01

@ QRLRVE:  << XDIPLEN  ; XDIPLEN  >> (   0.01987):     7.92443283435    

@ QRLRVE:  << YDIPLEN  ; XDIPLEN  >> (   0.01987):    4.739020961124E-16

@ QRLRVE:  << ZDIPLEN  ; XDIPLEN  >> (   0.01987):   -4.985926126975E-16

@ QRLRVE: SINGLET SOLUTION FOR SYMMETRY    1  ( A  )    LABEL   XDIPLEN     FREQUENCY   0.397334D-01

@ QRLRVE:  << XDIPLEN  ; XDIPLEN  >> (   0.03973):     7.95649036471    

@ QRLRVE:  << YDIPLEN  ; XDIPLEN  >> (   0.03973):    4.801191940926E-16

@ QRLRVE:  << ZDIPLEN  ; XDIPLEN  >> (   0.03973):   -5.042107834311E-16

@ QRLRVE: SINGLET SOLUTION FOR SYMMETRY    1  ( A  )    LABEL   XDIPLEN     FREQUENCY   0.596001D-01

@ QRLRVE:  << XDIPLEN  ; XDIPLEN  >> (   0.05960):     8.01105852732    

@ QRLRVE:  << YDIPLEN  ; XDIPLEN  >> (   0.05960):    4.908264160134E-16

@ QRLRVE:  << ZDIPLEN  ; XDIPLEN  >> (   0.05960):   -5.139607796571E-16

@ QRLRVE: SINGLET SOLUTION FOR SYMMETRY    1  ( A  )    LABEL   XDIPLEN     FREQUENCY   0.794668D-01

@ QRLRVE:  << XDIPLEN  ; XDIPLEN  >> (   0.07947):     8.08997394817    

@ QRLRVE:  << YDIPLEN  ; XDIPLEN  >> (   0.07947):    5.065876453625E-16

@ QRLRVE:  << ZDIPLEN  ; XDIPLEN  >> (   0.07947):   -5.284839812824E-16

@ QRLRVE: SINGLET SOLUTION FOR SYMMETRY    1  ( A  )    LABEL   XDIPLEN     FREQUENCY   0.993334D-01

@ QRLRVE:  << XDIPLEN  ; XDIPLEN  >> (   0.09933):     8.19609445264    

@ QRLRVE:  << YDIPLEN  ; XDIPLEN  >> (   0.09933):    5.282953692990E-16

@ QRLRVE:  << ZDIPLEN  ; XDIPLEN  >> (   0.09933):   -5.488192693295E-16

@ QRLRVE: SINGLET SOLUTION FOR SYMMETRY    1  ( A  )    LABEL   XDIPLEN     FREQUENCY   0.119200D+00

@ QRLRVE:  << XDIPLEN  ; XDIPLEN  >> (   0.11920):     8.33366818289    

@ QRLRVE:  << YDIPLEN  ; XDIPLEN  >> (   0.11920):    5.573052483065E-16

@ QRLRVE:  << ZDIPLEN  ; XDIPLEN  >> (   0.11920):   -5.765920989964E-16

@ QRLRVE: SINGLET SOLUTION FOR SYMMETRY    1  ( A  )    LABEL   XDIPLEN     FREQUENCY   0.139067D+00

@ QRLRVE:  << XDIPLEN  ; XDIPLEN  >> (   0.13907):     8.50896549286    

@ QRLRVE:  << YDIPLEN  ; XDIPLEN  >> (   0.13907):    5.956695482823E-16

@ QRLRVE:  << ZDIPLEN  ; XDIPLEN  >> (   0.13907):   -6.143512930018E-16

@ QRLRVE: SINGLET SOLUTION FOR SYMMETRY    1  ( A  )    LABEL   XDIPLEN     FREQUENCY   0.158934D+00

@ QRLRVE:  << XDIPLEN  ; XDIPLEN  >> (   0.15893):     8.73138952496    

@ QRLRVE:  << YDIPLEN  ; XDIPLEN  >> (   0.15893):    6.465531346298E-16

@ QRLRVE:  << ZDIPLEN  ; XDIPLEN  >> (   0.15893):   -6.661866751882E-16


 QRLRVE -- linear response calculation for symmetry  1  ( A  )
 QRLRVE -- operator label : YDIPLEN 
 QRLRVE -- operator spin  :   0
 QRLRVE -- frequencies :  0.000000  0.019867  0.039733  0.059600  0.079467
                          0.099333  0.119200  0.139067  0.158934



 ---  SOLVING SETS OF LINEAR EQUATIONS FOR LINEAR RESPONSE PROPERTIES ---

 Operator symmetry = 1  ( A  ); triplet =   F


 ** RSPCTL MICROITERATION NUMBER    1

       No.  Residual tot.,    conf., and orb.    Bnorm      Frequency 
      ----------------------------------------------------------------
         1    8.66026D-01  0.00D+00  8.66D-01  2.34D+00    0.00000D+00
         2    8.66660D-01  0.00D+00  8.67D-01  2.35D+00    1.98667D-02
         3    8.68573D-01  0.00D+00  8.69D-01  2.36D+00    3.97334D-02
         4    8.71788D-01  0.00D+00  8.72D-01  2.38D+00    5.96001D-02
         5    8.76350D-01  0.00D+00  8.76D-01  2.41D+00    7.94668D-02
         6    8.82321D-01  0.00D+00  8.82D-01  2.45D+00    9.93334D-02
         7    8.89787D-01  0.00D+00  8.90D-01  2.49D+00    1.19200D-01
         8    8.98859D-01  0.00D+00  8.99D-01  2.55D+00    1.39067D-01
         9    9.09678D-01  0.00D+00  9.10D-01  2.62D+00    1.58934D-01

 ** RSPCTL MICROITERATION NUMBER    2

       No.  Residual tot.,    conf., and orb.    Bnorm      Frequency 
      ----------------------------------------------------------------
         1    8.67922D-02  0.00D+00  8.68D-02  2.43D+00    0.00000D+00
         2    8.69849D-02  0.00D+00  8.70D-02  2.43D+00    1.98667D-02
         3    8.75674D-02  0.00D+00  8.76D-02  2.45D+00    3.97334D-02
         4    8.85531D-02  0.00D+00  8.86D-02  2.47D+00    5.96001D-02
         5    8.99651D-02  0.00D+00  9.00D-02  2.50D+00    7.94668D-02
         6    9.18378D-02  0.00D+00  9.18D-02  2.54D+00    9.93334D-02
         7    9.42183D-02  0.00D+00  9.42D-02  2.59D+00    1.19200D-01
         8    9.71699D-02  0.00D+00  9.72D-02  2.65D+00    1.39067D-01
         9    1.00776D-01  0.00D+00  1.01D-01  2.73D+00    1.58934D-01

 ** RSPCTL MICROITERATION NUMBER    3

       No.  Residual tot.,    conf., and orb.    Bnorm      Frequency 
      ----------------------------------------------------------------
         1    8.19890D-03  0.00D+00  8.20D-03  2.43D+00    0.00000D+00
         2    8.25121D-03  0.00D+00  8.25D-03  2.44D+00    1.98667D-02
         3    8.40902D-03  0.00D+00  8.41D-03  2.45D+00    3.97334D-02
         4    8.67510D-03  0.00D+00  8.68D-03  2.47D+00    5.96001D-02
         5    9.05442D-03  0.00D+00  9.05D-03  2.50D+00    7.94668D-02
         6    9.55464D-03  0.00D+00  9.55D-03  2.54D+00    9.93334D-02
         7    1.01869D-02  0.00D+00  1.02D-02  2.59D+00    1.19200D-01
         8    1.09667D-02  0.00D+00  1.10D-02  2.65D+00    1.39067D-01
         9    1.19153D-02  0.00D+00  1.19D-02  2.73D+00    1.58934D-01

 ** RSPCTL MICROITERATION NUMBER    4

       No.  Residual tot.,    conf., and orb.    Bnorm      Frequency 
      ----------------------------------------------------------------
         1    1.79914D-03  0.00D+00  1.80D-03  2.43D+00    0.00000D+00
         2    1.80364D-03  0.00D+00  1.80D-03  2.44D+00    1.98667D-02
         3    1.81723D-03  0.00D+00  1.82D-03  2.45D+00    3.97334D-02
         4    1.84028D-03  0.00D+00  1.84D-03  2.47D+00    5.96001D-02
         5    1.87339D-03  0.00D+00  1.87D-03  2.50D+00    7.94668D-02
         6    1.91752D-03  0.00D+00  1.92D-03  2.54D+00    9.93334D-02
         7    1.97402D-03  0.00D+00  1.97D-03  2.59D+00    1.19200D-01
         8    2.04481D-03  0.00D+00  2.04D-03  2.65D+00    1.39067D-01
         9    2.13261D-03  0.00D+00  2.13D-03  2.73D+00    1.58934D-01

 *** THE REQUESTED    9 SOLUTION VECTORS CONVERGED

 Convergence of RSP solution vectors, threshold = 1.00D-03
 ---------------------------------------------------------------
 (dimension of paired reduced space:   72)
 RSP solution vector no.    1; norm of residual   7.40D-04
 RSP solution vector no.    2; norm of residual   7.40D-04
 RSP solution vector no.    3; norm of residual   7.42D-04
 RSP solution vector no.    4; norm of residual   7.45D-04
 RSP solution vector no.    5; norm of residual   7.49D-04
 RSP solution vector no.    6; norm of residual   7.54D-04
 RSP solution vector no.    7; norm of residual   7.61D-04
 RSP solution vector no.    8; norm of residual   7.70D-04
 RSP solution vector no.    9; norm of residual   7.82D-04

 *** RSPCTL MICROITERATIONS CONVERGED

@ QRLRVE: SINGLET SOLUTION FOR SYMMETRY    1  ( A  )    LABEL   YDIPLEN     FREQUENCY   0.000000D+00

@ QRLRVE:  << XDIPLEN  ; YDIPLEN  >> (   0.00000):    1.846828005821E-15

@ QRLRVE:  << YDIPLEN  ; YDIPLEN  >> (   0.00000):     9.19477190790    

@ QRLRVE:  << ZDIPLEN  ; YDIPLEN  >> (   0.00000):   -3.604837793668E-04

@ QRLRVE: SINGLET SOLUTION FOR SYMMETRY    1  ( A  )    LABEL   YDIPLEN     FREQUENCY   0.198667D-01

@ QRLRVE:  << XDIPLEN  ; YDIPLEN  >> (   0.01987):    1.846885054646E-15

@ QRLRVE:  << YDIPLEN  ; YDIPLEN  >> (   0.01987):     9.20312627323    

@ QRLRVE:  << ZDIPLEN  ; YDIPLEN  >> (   0.01987):   -3.612169750798E-04

@ QRLRVE: SINGLET SOLUTION FOR SYMMETRY    1  ( A  )    LABEL   YDIPLEN     FREQUENCY   0.397334D-01

@ QRLRVE:  << XDIPLEN  ; YDIPLEN  >> (   0.03973):    1.846707491586E-15

@ QRLRVE:  << YDIPLEN  ; YDIPLEN  >> (   0.03973):     9.22830845167    

@ QRLRVE:  << ZDIPLEN  ; YDIPLEN  >> (   0.03973):   -3.634184109454E-04

@ QRLRVE: SINGLET SOLUTION FOR SYMMETRY    1  ( A  )    LABEL   YDIPLEN     FREQUENCY   0.596001D-01

@ QRLRVE:  << XDIPLEN  ; YDIPLEN  >> (   0.05960):    1.845197906388E-15

@ QRLRVE:  << YDIPLEN  ; YDIPLEN  >> (   0.05960):     9.27068055380    

@ QRLRVE:  << ZDIPLEN  ; YDIPLEN  >> (   0.05960):   -3.670925749335E-04

@ QRLRVE: SINGLET SOLUTION FOR SYMMETRY    1  ( A  )    LABEL   YDIPLEN     FREQUENCY   0.794668D-01

@ QRLRVE:  << XDIPLEN  ; YDIPLEN  >> (   0.07947):    1.840346846777E-15

@ QRLRVE:  << YDIPLEN  ; YDIPLEN  >> (   0.07947):     9.33086271128    

@ QRLRVE:  << ZDIPLEN  ; YDIPLEN  >> (   0.07947):   -3.722431752968E-04

@ QRLRVE: SINGLET SOLUTION FOR SYMMETRY    1  ( A  )    LABEL   YDIPLEN     FREQUENCY   0.993334D-01

@ QRLRVE:  << XDIPLEN  ; YDIPLEN  >> (   0.09933):    1.828926537447E-15

@ QRLRVE:  << YDIPLEN  ; YDIPLEN  >> (   0.09933):     9.40975946771    

@ QRLRVE:  << ZDIPLEN  ; YDIPLEN  >> (   0.09933):   -3.788665635353E-04

@ QRLRVE: SINGLET SOLUTION FOR SYMMETRY    1  ( A  )    LABEL   YDIPLEN     FREQUENCY   0.119200D+00

@ QRLRVE:  << XDIPLEN  ; YDIPLEN  >> (   0.11920):    1.805981407943E-15

@ QRLRVE:  << YDIPLEN  ; YDIPLEN  >> (   0.11920):     9.50859988453    

@ QRLRVE:  << ZDIPLEN  ; YDIPLEN  >> (   0.11920):   -3.869404341090E-04

@ QRLRVE: SINGLET SOLUTION FOR SYMMETRY    1  ( A  )    LABEL   YDIPLEN     FREQUENCY   0.139067D+00

@ QRLRVE:  << XDIPLEN  ; YDIPLEN  >> (   0.13907):    1.764009406941E-15

@ QRLRVE:  << YDIPLEN  ; YDIPLEN  >> (   0.13907):     9.62899508274    

@ QRLRVE:  << ZDIPLEN  ; YDIPLEN  >> (   0.13907):   -3.964050273012E-04

@ QRLRVE: SINGLET SOLUTION FOR SYMMETRY    1  ( A  )    LABEL   YDIPLEN     FREQUENCY   0.158934D+00

@ QRLRVE:  << XDIPLEN  ; YDIPLEN  >> (   0.15893):    1.691651358528E-15

@ QRLRVE:  << YDIPLEN  ; YDIPLEN  >> (   0.15893):     9.77301895330    

@ QRLRVE:  << ZDIPLEN  ; YDIPLEN  >> (   0.15893):   -4.071320238963E-04


 QRLRVE -- linear response calculation for symmetry  1  ( A  )
 QRLRVE -- operator label : ZDIPLEN 
 QRLRVE -- operator spin  :   0
 QRLRVE -- frequencies :  0.000000  0.019867  0.039733  0.059600  0.079467
                          0.099333  0.119200  0.139067  0.158934



 ---  SOLVING SETS OF LINEAR EQUATIONS FOR LINEAR RESPONSE PROPERTIES ---

 Operator symmetry = 1  ( A  ); triplet =   F


 ** RSPCTL MICROITERATION NUMBER    1

       No.  Residual tot.,    conf., and orb.    Bnorm      Frequency 
      ----------------------------------------------------------------
         1    1.54951D+00  0.00D+00  1.55D+00  2.21D+00    0.00000D+00
         2    1.55099D+00  0.00D+00  1.55D+00  2.22D+00    1.98667D-02
         3    1.55546D+00  0.00D+00  1.56D+00  2.23D+00    3.97334D-02
         4    1.56300D+00  0.00D+00  1.56D+00  2.25D+00    5.96001D-02
         5    1.57374D+00  0.00D+00  1.57D+00  2.29D+00    7.94668D-02
         6    1.58789D+00  0.00D+00  1.59D+00  2.33D+00    9.93334D-02
         7    1.60573D+00  0.00D+00  1.61D+00  2.38D+00    1.19200D-01
         8    1.62763D+00  0.00D+00  1.63D+00  2.45D+00    1.39067D-01
         9    1.65410D+00  0.00D+00  1.65D+00  2.53D+00    1.58934D-01

 ** RSPCTL MICROITERATION NUMBER    2

       No.  Residual tot.,    conf., and orb.    Bnorm      Frequency 
      ----------------------------------------------------------------
         1    3.81743D-01  0.00D+00  3.82D-01  2.40D+00    0.00000D+00
         2    3.82394D-01  0.00D+00  3.82D-01  2.40D+00    1.98667D-02
         3    3.84363D-01  0.00D+00  3.84D-01  2.42D+00    3.97334D-02
         4    3.87701D-01  0.00D+00  3.88D-01  2.45D+00    5.96001D-02
         5    3.92497D-01  0.00D+00  3.92D-01  2.49D+00    7.94668D-02
         6    3.98882D-01  0.00D+00  3.99D-01  2.54D+00    9.93334D-02
         7    4.07045D-01  0.00D+00  4.07D-01  2.61D+00    1.19200D-01
         8    4.17246D-01  0.00D+00  4.17D-01  2.69D+00    1.39067D-01
         9    4.29841D-01  0.00D+00  4.30D-01  2.80D+00    1.58934D-01

 ** RSPCTL MICROITERATION NUMBER    3

       No.  Residual tot.,    conf., and orb.    Bnorm      Frequency 
      ----------------------------------------------------------------
         1    3.43782D-02  0.00D+00  3.44D-02  2.42D+00    0.00000D+00
         2    3.44791D-02  0.00D+00  3.45D-02  2.42D+00    1.98667D-02
         3    3.47856D-02  0.00D+00  3.48D-02  2.44D+00    3.97334D-02
         4    3.53093D-02  0.00D+00  3.53D-02  2.47D+00    5.96001D-02
         5    3.60708D-02  0.00D+00  3.61D-02  2.51D+00    7.94668D-02
         6    3.71015D-02  0.00D+00  3.71D-02  2.56D+00    9.93334D-02
         7    3.84470D-02  0.00D+00  3.84D-02  2.63D+00    1.19200D-01
         8    4.01717D-02  0.00D+00  4.02D-02  2.72D+00    1.39067D-01
         9    4.23671D-02  0.00D+00  4.24D-02  2.82D+00    1.58934D-01

 ** RSPCTL MICROITERATION NUMBER    4

       No.  Residual tot.,    conf., and orb.    Bnorm      Frequency 
      ----------------------------------------------------------------
         1    3.91590D-03  0.00D+00  3.92D-03  2.42D+00    0.00000D+00
         2    3.93160D-03  0.00D+00  3.93D-03  2.42D+00    1.98667D-02
         3    3.97926D-03  0.00D+00  3.98D-03  2.44D+00    3.97334D-02
         4    4.06071D-03  0.00D+00  4.06D-03  2.47D+00    5.96001D-02
         5    4.17913D-03  0.00D+00  4.18D-03  2.51D+00    7.94668D-02
         6    4.33937D-03  0.00D+00  4.34D-03  2.56D+00    9.93334D-02
         7    4.54839D-03  0.00D+00  4.55D-03  2.63D+00    1.19200D-01
         8    4.81601D-03  0.00D+00  4.82D-03  2.72D+00    1.39067D-01
         9    5.15609D-03  0.00D+00  5.16D-03  2.83D+00    1.58934D-01

 ** RSPCTL MICROITERATION NUMBER    5

       No.  Residual tot.,    conf., and orb.    Bnorm      Frequency 
      ----------------------------------------------------------------
         1    3.99376D-04  0.00D+00  3.99D-04  2.42D+00    0.00000D+00
         2    4.01705D-04  0.00D+00  4.02D-04  2.42D+00    1.98667D-02
         3    4.08790D-04  0.00D+00  4.09D-04  2.44D+00    3.97334D-02
         4    4.20933D-04  0.00D+00  4.21D-04  2.47D+00    5.96001D-02
         5    4.38672D-04  0.00D+00  4.39D-04  2.51D+00    7.94668D-02
         6    4.62833D-04  0.00D+00  4.63D-04  2.56D+00    9.93334D-02
         7    4.94620D-04  0.00D+00  4.95D-04  2.63D+00    1.19200D-01
         8    5.35766D-04  0.00D+00  5.36D-04  2.72D+00    1.39067D-01
         9    5.88763D-04  0.00D+00  5.89D-04  2.83D+00    1.58934D-01

 *** THE REQUESTED    9 SOLUTION VECTORS CONVERGED

 Convergence of RSP solution vectors, threshold = 1.00D-03
 ---------------------------------------------------------------
 (dimension of paired reduced space:   90)
 RSP solution vector no.    1; norm of residual   1.65D-04
 RSP solution vector no.    2; norm of residual   1.66D-04
 RSP solution vector no.    3; norm of residual   1.68D-04
 RSP solution vector no.    4; norm of residual   1.71D-04
 RSP solution vector no.    5; norm of residual   1.75D-04
 RSP solution vector no.    6; norm of residual   1.81D-04
 RSP solution vector no.    7; norm of residual   1.88D-04
 RSP solution vector no.    8; norm of residual   1.97D-04
 RSP solution vector no.    9; norm of residual   2.08D-04

 *** RSPCTL MICROITERATIONS CONVERGED

@ QRLRVE: SINGLET SOLUTION FOR SYMMETRY    1  ( A  )    LABEL   ZDIPLEN     FREQUENCY   0.000000D+00

@ QRLRVE:  << XDIPLEN  ; ZDIPLEN  >> (   0.00000):   -3.598056489115E-15

@ QRLRVE:  << YDIPLEN  ; ZDIPLEN  >> (   0.00000):    1.372240425560E-04

@ QRLRVE:  << ZDIPLEN  ; ZDIPLEN  >> (   0.00000):     8.52510073942    

@ QRLRVE: SINGLET SOLUTION FOR SYMMETRY    1  ( A  )    LABEL   ZDIPLEN     FREQUENCY   0.198667D-01

@ QRLRVE:  << XDIPLEN  ; ZDIPLEN  >> (   0.01987):   -3.630575713939E-15

@ QRLRVE:  << YDIPLEN  ; ZDIPLEN  >> (   0.01987):    1.382712701627E-04

@ QRLRVE:  << ZDIPLEN  ; ZDIPLEN  >> (   0.01987):     8.53423562192    

@ QRLRVE: SINGLET SOLUTION FOR SYMMETRY    1  ( A  )    LABEL   ZDIPLEN     FREQUENCY   0.397334D-01

@ QRLRVE:  << XDIPLEN  ; ZDIPLEN  >> (   0.03973):   -3.730217977635E-15

@ QRLRVE:  << YDIPLEN  ; ZDIPLEN  >> (   0.03973):    1.414694329905E-04

@ QRLRVE:  << ZDIPLEN  ; ZDIPLEN  >> (   0.03973):     8.56182593967    

@ QRLRVE: SINGLET SOLUTION FOR SYMMETRY    1  ( A  )    LABEL   ZDIPLEN     FREQUENCY   0.596001D-01

@ QRLRVE:  << XDIPLEN  ; ZDIPLEN  >> (   0.05960):   -3.903506719496E-15

@ QRLRVE:  << YDIPLEN  ; ZDIPLEN  >> (   0.05960):    1.469944107888E-04

@ QRLRVE:  << ZDIPLEN  ; ZDIPLEN  >> (   0.05960):     8.60844038531    

@ QRLRVE: SINGLET SOLUTION FOR SYMMETRY    1  ( A  )    LABEL   ZDIPLEN     FREQUENCY   0.794668D-01

@ QRLRVE:  << XDIPLEN  ; ZDIPLEN  >> (   0.07947):   -4.162271016284E-15

@ QRLRVE:  << YDIPLEN  ; ZDIPLEN  >> (   0.07947):    1.551620402243E-04

@ QRLRVE:  << ZDIPLEN  ; ZDIPLEN  >> (   0.07947):     8.67506724275    

@ QRLRVE: SINGLET SOLUTION FOR SYMMETRY    1  ( A  )    LABEL   ZDIPLEN     FREQUENCY   0.993334D-01

@ QRLRVE:  << XDIPLEN  ; ZDIPLEN  >> (   0.09933):   -4.525301355351E-15

@ QRLRVE:  << YDIPLEN  ; ZDIPLEN  >> (   0.09933):    1.664668634026E-04

@ QRLRVE:  << ZDIPLEN  ; ZDIPLEN  >> (   0.09933):     8.76318075290    

@ QRLRVE: SINGLET SOLUTION FOR SYMMETRY    1  ( A  )    LABEL   ZDIPLEN     FREQUENCY   0.119200D+00

@ QRLRVE:  << XDIPLEN  ; ZDIPLEN  >> (   0.11920):   -5.021184452616E-15

@ QRLRVE:  << YDIPLEN  ; ZDIPLEN  >> (   0.11920):    1.816472062491E-04

@ QRLRVE:  << ZDIPLEN  ; ZDIPLEN  >> (   0.11920):     8.87484670951    

@ QRLRVE: SINGLET SOLUTION FOR SYMMETRY    1  ( A  )    LABEL   ZDIPLEN     FREQUENCY   0.139067D+00

@ QRLRVE:  << XDIPLEN  ; ZDIPLEN  >> (   0.13907):   -5.693045530113E-15

@ QRLRVE:  << YDIPLEN  ; ZDIPLEN  >> (   0.13907):    2.017914194916E-04

@ QRLRVE:  << ZDIPLEN  ; ZDIPLEN  >> (   0.13907):     9.01288358571    

@ QRLRVE: SINGLET SOLUTION FOR SYMMETRY    1  ( A  )    LABEL   ZDIPLEN     FREQUENCY   0.158934D+00

@ QRLRVE:  << XDIPLEN  ; ZDIPLEN  >> (   0.15893):   -6.606553701397E-15

@ QRLRVE:  << YDIPLEN  ; ZDIPLEN  >> (   0.15893):    2.285120736371E-04

@ QRLRVE:  << ZDIPLEN  ; ZDIPLEN  >> (   0.15893):     9.18110682249    
 
 ======================================================================
 ---  L I N E A R   R E S P O N S E   F U N C T I O N S --- 
 ======================================================================

 The -<<A;B>>(omega_b) functions from vectors generated
 in a *QUADRA calculation of <<A;B,C>>(omega_b,omega_c)

 Note: the accuracy of off-diagonal elements will be linear
 in the convergence threshold THCLR =  1.00D-03


 Perturbation symmetry.     KSYMOP:           1
 Perturbation spin symmetry.TRPLET:           F
 Orbital variables.         KZWOPT:         605
 Configuration variables.   KZCONF:           0
 Total number of variables. KZVAR :         605

@ Singlet linear response function in a.u.

@ A operator, symmetry, frequency:   XDIPLEN    1 -0.000000
@ B operator, symmetry, frequency:   XDIPLEN    1  0.000000

@ Value of linear response -<<A;B>>(omega):       7.913857438663

@ Singlet linear response function in a.u.

@ A operator, symmetry, frequency:   YDIPLEN    1 -0.000000
@ B operator, symmetry, frequency:   XDIPLEN    1  0.000000

@ Value of linear response -<<A;B>>(omega):       0.000000000000

@ Singlet linear response function in a.u.

@ A operator, symmetry, frequency:   ZDIPLEN    1 -0.000000
@ B operator, symmetry, frequency:   XDIPLEN    1  0.000000

@ Value of linear response -<<A;B>>(omega):      -0.000000000000

@ Singlet linear response function in a.u.

@ A operator, symmetry, frequency:   XDIPLEN    1 -0.019867
@ B operator, symmetry, frequency:   XDIPLEN    1  0.019867

@ Value of linear response -<<A;B>>(omega):       7.924432834349

@ Singlet linear response function in a.u.

@ A operator, symmetry, frequency:   YDIPLEN    1 -0.019867
@ B operator, symmetry, frequency:   XDIPLEN    1  0.019867

@ Value of linear response -<<A;B>>(omega):       0.000000000000

@ Singlet linear response function in a.u.

@ A operator, symmetry, frequency:   ZDIPLEN    1 -0.019867
@ B operator, symmetry, frequency:   XDIPLEN    1  0.019867

@ Value of linear response -<<A;B>>(omega):      -0.000000000000

@ Singlet linear response function in a.u.

@ A operator, symmetry, frequency:   XDIPLEN    1 -0.039733
@ B operator, symmetry, frequency:   XDIPLEN    1  0.039733

@ Value of linear response -<<A;B>>(omega):       7.956490364708

@ Singlet linear response function in a.u.

@ A operator, symmetry, frequency:   YDIPLEN    1 -0.039733
@ B operator, symmetry, frequency:   XDIPLEN    1  0.039733

@ Value of linear response -<<A;B>>(omega):       0.000000000000

@ Singlet linear response function in a.u.

@ A operator, symmetry, frequency:   ZDIPLEN    1 -0.039733
@ B operator, symmetry, frequency:   XDIPLEN    1  0.039733

@ Value of linear response -<<A;B>>(omega):      -0.000000000000

@ Singlet linear response function in a.u.

@ A operator, symmetry, frequency:   XDIPLEN    1 -0.059600
@ B operator, symmetry, frequency:   XDIPLEN    1  0.059600

@ Value of linear response -<<A;B>>(omega):       8.011058527321

@ Singlet linear response function in a.u.

@ A operator, symmetry, frequency:   YDIPLEN    1 -0.059600
@ B operator, symmetry, frequency:   XDIPLEN    1  0.059600

@ Value of linear response -<<A;B>>(omega):       0.000000000000

@ Singlet linear response function in a.u.

@ A operator, symmetry, frequency:   ZDIPLEN    1 -0.059600
@ B operator, symmetry, frequency:   XDIPLEN    1  0.059600

@ Value of linear response -<<A;B>>(omega):      -0.000000000000

@ Singlet linear response function in a.u.

@ A operator, symmetry, frequency:   XDIPLEN    1 -0.079467
@ B operator, symmetry, frequency:   XDIPLEN    1  0.079467

@ Value of linear response -<<A;B>>(omega):       8.089973948173

@ Singlet linear response function in a.u.

@ A operator, symmetry, frequency:   YDIPLEN    1 -0.079467
@ B operator, symmetry, frequency:   XDIPLEN    1  0.079467

@ Value of linear response -<<A;B>>(omega):       0.000000000000

@ Singlet linear response function in a.u.

@ A operator, symmetry, frequency:   ZDIPLEN    1 -0.079467
@ B operator, symmetry, frequency:   XDIPLEN    1  0.079467

@ Value of linear response -<<A;B>>(omega):      -0.000000000000

@ Singlet linear response function in a.u.

@ A operator, symmetry, frequency:   XDIPLEN    1 -0.000000
@ B operator, symmetry, frequency:   YDIPLEN    1  0.000000

@ Value of linear response -<<A;B>>(omega):       0.000000000000

@ Singlet linear response function in a.u.

@ A operator, symmetry, frequency:   YDIPLEN    1 -0.000000
@ B operator, symmetry, frequency:   YDIPLEN    1  0.000000

@ Value of linear response -<<A;B>>(omega):       9.194771907904

@ Singlet linear response function in a.u.

@ A operator, symmetry, frequency:   ZDIPLEN    1 -0.000000
@ B operator, symmetry, frequency:   YDIPLEN    1  0.000000

@ Value of linear response -<<A;B>>(omega):      -0.000360483779

@ Singlet linear response function in a.u.

@ A operator, symmetry, frequency:   XDIPLEN    1 -0.019867
@ B operator, symmetry, frequency:   YDIPLEN    1  0.019867

@ Value of linear response -<<A;B>>(omega):       0.000000000000

@ Singlet linear response function in a.u.

@ A operator, symmetry, frequency:   YDIPLEN    1 -0.019867
@ B operator, symmetry, frequency:   YDIPLEN    1  0.019867

@ Value of linear response -<<A;B>>(omega):       9.203126273225

@ Singlet linear response function in a.u.

@ A operator, symmetry, frequency:   ZDIPLEN    1 -0.019867
@ B operator, symmetry, frequency:   YDIPLEN    1  0.019867

@ Value of linear response -<<A;B>>(omega):      -0.000361216975

@ Singlet linear response function in a.u.

@ A operator, symmetry, frequency:   XDIPLEN    1 -0.039733
@ B operator, symmetry, frequency:   YDIPLEN    1  0.039733

@ Value of linear response -<<A;B>>(omega):       0.000000000000

@ Singlet linear response function in a.u.

@ A operator, symmetry, frequency:   YDIPLEN    1 -0.039733
@ B operator, symmetry, frequency:   YDIPLEN    1  0.039733

@ Value of linear response -<<A;B>>(omega):       9.228308451665

@ Singlet linear response function in a.u.

@ A operator, symmetry, frequency:   ZDIPLEN    1 -0.039733
@ B operator, symmetry, frequency:   YDIPLEN    1  0.039733

@ Value of linear response -<<A;B>>(omega):      -0.000363418411

@ Singlet linear response function in a.u.

@ A operator, symmetry, frequency:   XDIPLEN    1 -0.059600
@ B operator, symmetry, frequency:   YDIPLEN    1  0.059600

@ Value of linear response -<<A;B>>(omega):       0.000000000000

@ Singlet linear response function in a.u.

@ A operator, symmetry, frequency:   YDIPLEN    1 -0.059600
@ B operator, symmetry, frequency:   YDIPLEN    1  0.059600

@ Value of linear response -<<A;B>>(omega):       9.270680553797

@ Singlet linear response function in a.u.

@ A operator, symmetry, frequency:   ZDIPLEN    1 -0.059600
@ B operator, symmetry, frequency:   YDIPLEN    1  0.059600

@ Value of linear response -<<A;B>>(omega):      -0.000367092575

@ Singlet linear response function in a.u.

@ A operator, symmetry, frequency:   XDIPLEN    1 -0.079467
@ B operator, symmetry, frequency:   YDIPLEN    1  0.079467

@ Value of linear response -<<A;B>>(omega):       0.000000000000

@ Singlet linear response function in a.u.

@ A operator, symmetry, frequency:   YDIPLEN    1 -0.079467
@ B operator, symmetry, frequency:   YDIPLEN    1  0.079467

@ Value of linear response -<<A;B>>(omega):       9.330862711280

@ Singlet linear response function in a.u.

@ A operator, symmetry, frequency:   ZDIPLEN    1 -0.079467
@ B operator, symmetry, frequency:   YDIPLEN    1  0.079467

@ Value of linear response -<<A;B>>(omega):      -0.000372243175

@ Singlet linear response function in a.u.

@ A operator, symmetry, frequency:   XDIPLEN    1 -0.000000
@ B operator, symmetry, frequency:   ZDIPLEN    1  0.000000

@ Value of linear response -<<A;B>>(omega):      -0.000000000000

@ Singlet linear response function in a.u.

@ A operator, symmetry, frequency:   YDIPLEN    1 -0.000000
@ B operator, symmetry, frequency:   ZDIPLEN    1  0.000000

@ Value of linear response -<<A;B>>(omega):       0.000137224043

@ Singlet linear response function in a.u.

@ A operator, symmetry, frequency:   ZDIPLEN    1 -0.000000
@ B operator, symmetry, frequency:   ZDIPLEN    1  0.000000

@ Value of linear response -<<A;B>>(omega):       8.525100739420

@ Singlet linear response function in a.u.

@ A operator, symmetry, frequency:   XDIPLEN    1 -0.019867
@ B operator, symmetry, frequency:   ZDIPLEN    1  0.019867

@ Value of linear response -<<A;B>>(omega):      -0.000000000000

@ Singlet linear response function in a.u.

@ A operator, symmetry, frequency:   YDIPLEN    1 -0.019867
@ B operator, symmetry, frequency:   ZDIPLEN    1  0.019867

@ Value of linear response -<<A;B>>(omega):       0.000138271270

@ Singlet linear response function in a.u.

@ A operator, symmetry, frequency:   ZDIPLEN    1 -0.019867
@ B operator, symmetry, frequency:   ZDIPLEN    1  0.019867

@ Value of linear response -<<A;B>>(omega):       8.534235621919

@ Singlet linear response function in a.u.

@ A operator, symmetry, frequency:   XDIPLEN    1 -0.039733
@ B operator, symmetry, frequency:   ZDIPLEN    1  0.039733

@ Value of linear response -<<A;B>>(omega):      -0.000000000000

@ Singlet linear response function in a.u.

@ A operator, symmetry, frequency:   YDIPLEN    1 -0.039733
@ B operator, symmetry, frequency:   ZDIPLEN    1  0.039733

@ Value of linear response -<<A;B>>(omega):       0.000141469433

@ Singlet linear response function in a.u.

@ A operator, symmetry, frequency:   ZDIPLEN    1 -0.039733
@ B operator, symmetry, frequency:   ZDIPLEN    1  0.039733

@ Value of linear response -<<A;B>>(omega):       8.561825939667

@ Singlet linear response function in a.u.

@ A operator, symmetry, frequency:   XDIPLEN    1 -0.059600
@ B operator, symmetry, frequency:   ZDIPLEN    1  0.059600

@ Value of linear response -<<A;B>>(omega):      -0.000000000000

@ Singlet linear response function in a.u.

@ A operator, symmetry, frequency:   YDIPLEN    1 -0.059600
@ B operator, symmetry, frequency:   ZDIPLEN    1  0.059600

@ Value of linear response -<<A;B>>(omega):       0.000146994411

@ Singlet linear response function in a.u.

@ A operator, symmetry, frequency:   ZDIPLEN    1 -0.059600
@ B operator, symmetry, frequency:   ZDIPLEN    1  0.059600

@ Value of linear response -<<A;B>>(omega):       8.608440385306

@ Singlet linear response function in a.u.

@ A operator, symmetry, frequency:   XDIPLEN    1 -0.079467
@ B operator, symmetry, frequency:   ZDIPLEN    1  0.079467

@ Value of linear response -<<A;B>>(omega):      -0.000000000000

@ Singlet linear response function in a.u.

@ A operator, symmetry, frequency:   YDIPLEN    1 -0.079467
@ B operator, symmetry, frequency:   ZDIPLEN    1  0.079467

@ Value of linear response -<<A;B>>(omega):       0.000155162040

@ Singlet linear response function in a.u.

@ A operator, symmetry, frequency:   ZDIPLEN    1 -0.079467
@ B operator, symmetry, frequency:   ZDIPLEN    1  0.079467

@ Value of linear response -<<A;B>>(omega):       8.675067242754


  Results from quadratic response calculation
[...]
@ B-freq = 0.059600  C-freq = 0.059600     beta(Y;Z,Y) =     10.34278381
@ B-freq = 0.059600  C-freq = 0.059600     beta(Z;Z,Y) =     -0.00029353
@ B-freq = 0.079467  C-freq = 0.059600     beta(X;Z,Y) =      0.00000000
@ B-freq = 0.079467  C-freq = 0.059600     beta(Y;Z,Y) =     10.73036537
@ B-freq = 0.079467  C-freq = 0.059600     beta(Z;Z,Y) =     -0.00019568
@ B-freq = 0.000000  C-freq = 0.079467     beta(X;X,Y) = beta(X,Y,X)
@ B-freq = 0.000000  C-freq = 0.079467     beta(Y;X,Y) = beta(Y,Y,X)
@ B-freq = 0.000000  C-freq = 0.079467     beta(Z;X,Y) = beta(Z,Y,X)
@ B-freq = 0.019867  C-freq = 0.079467     beta(X;X,Y) = beta(X,Y,X)
@ B-freq = 0.019867  C-freq = 0.079467     beta(Y;X,Y) = beta(Y,Y,X)
@ B-freq = 0.019867  C-freq = 0.079467     beta(Z;X,Y) = beta(Z,Y,X)
@ B-freq = 0.039733  C-freq = 0.079467     beta(X;X,Y) = beta(X,Y,X)
@ B-freq = 0.039733  C-freq = 0.079467     beta(Y;X,Y) = beta(Y,Y,X)
@ B-freq = 0.039733  C-freq = 0.079467     beta(Z;X,Y) = beta(Z,Y,X)
@ B-freq = 0.059600  C-freq = 0.079467     beta(X;X,Y) = beta(X,Y,X)
@ B-freq = 0.059600  C-freq = 0.079467     beta(Y;X,Y) = beta(Y,Y,X)
@ B-freq = 0.059600  C-freq = 0.079467     beta(Z;X,Y) = beta(Z,Y,X)
@ B-freq = 0.079467  C-freq = 0.079467     beta(X;X,Y) = beta(X,Y,X)
@ B-freq = 0.079467  C-freq = 0.079467     beta(Y;X,Y) = beta(Y,Y,X)
@ B-freq = 0.079467  C-freq = 0.079467     beta(Z;X,Y) = beta(Z,Y,X)
@ B-freq = 0.000000  C-freq = 0.079467     beta(X;Y,Y) = beta(X,Y,Y)
@ B-freq = 0.000000  C-freq = 0.079467     beta(Y;Y,Y) = beta(Y,Y,Y)
@ B-freq = 0.000000  C-freq = 0.079467     beta(Z;Y,Y) = beta(Z,Y,Y)
@ B-freq = 0.019867  C-freq = 0.079467     beta(X;Y,Y) = beta(X,Y,Y)
@ B-freq = 0.019867  C-freq = 0.079467     beta(Y;Y,Y) = beta(Y,Y,Y)
@ B-freq = 0.019867  C-freq = 0.079467     beta(Z;Y,Y) = beta(Z,Y,Y)
@ B-freq = 0.039733  C-freq = 0.079467     beta(X;Y,Y) = beta(X,Y,Y)
@ B-freq = 0.039733  C-freq = 0.079467     beta(Y;Y,Y) = beta(Y,Y,Y)
@ B-freq = 0.039733  C-freq = 0.079467     beta(Z;Y,Y) = beta(Z,Y,Y)
@ B-freq = 0.059600  C-freq = 0.079467     beta(X;Y,Y) = beta(X,Y,Y)
@ B-freq = 0.059600  C-freq = 0.079467     beta(Y;Y,Y) = beta(Y,Y,Y)
@ B-freq = 0.059600  C-freq = 0.079467     beta(Z;Y,Y) = beta(Z,Y,Y)
@ B-freq = 0.079467  C-freq = 0.079467     beta(X;Y,Y) =     -0.00000000
@ B-freq = 0.079467  C-freq = 0.079467     beta(Y;Y,Y) =     -0.00285853
@ B-freq = 0.079467  C-freq = 0.079467     beta(Z;Y,Y) =     11.24477559
@ B-freq = 0.000000  C-freq = 0.079467     beta(X;Z,Y) =      0.00000000
@ B-freq = 0.000000  C-freq = 0.079467     beta(Y;Z,Y) =      9.94101097
@ B-freq = 0.000000  C-freq = 0.079467     beta(Z;Z,Y) =     -0.00046264
@ B-freq = 0.019867  C-freq = 0.079467     beta(X;Z,Y) =      0.00000000
@ B-freq = 0.019867  C-freq = 0.079467     beta(Y;Z,Y) =     10.11801734
@ B-freq = 0.019867  C-freq = 0.079467     beta(Z;Z,Y) =     -0.00042439
@ B-freq = 0.039733  C-freq = 0.079467     beta(X;Z,Y) =      0.00000000
@ B-freq = 0.039733  C-freq = 0.079467     beta(Y;Z,Y) =     10.37545930
@ B-freq = 0.039733  C-freq = 0.079467     beta(Z;Z,Y) =     -0.00036549
@ B-freq = 0.059600  C-freq = 0.079467     beta(X;Z,Y) =      0.00000000
@ B-freq = 0.059600  C-freq = 0.079467     beta(Y;Z,Y) =     10.72306336
@ B-freq = 0.059600  C-freq = 0.079467     beta(Z;Z,Y) =     -0.00027920
@ B-freq = 0.079467  C-freq = 0.079467     beta(X;Z,Y) =      0.00000000
@ B-freq = 0.079467  C-freq = 0.079467     beta(Y;Z,Y) =     11.17488573
@ B-freq = 0.079467  C-freq = 0.079467     beta(Z;Z,Y) =     -0.00015431
@ B-freq = 0.000000  C-freq = 0.000000     beta(X;X,Z) = beta(Z,X,X)
@ B-freq = 0.000000  C-freq = 0.000000     beta(Y;X,Z) = beta(Z,Y,X)
@ B-freq = 0.000000  C-freq = 0.000000     beta(Z;X,Z) = beta(Z,Z,X)
@ B-freq = 0.019867  C-freq = 0.000000     beta(X;X,Z) = beta(X,Z,X)
@ B-freq = 0.019867  C-freq = 0.000000     beta(Y;X,Z) = beta(Y,Z,X)
@ B-freq = 0.019867  C-freq = 0.000000     beta(Z;X,Z) = beta(Z,Z,X)
@ B-freq = 0.039733  C-freq = 0.000000     beta(X;X,Z) = beta(X,Z,X)
@ B-freq = 0.039733  C-freq = 0.000000     beta(Y;X,Z) = beta(Y,Z,X)
@ B-freq = 0.039733  C-freq = 0.000000     beta(Z;X,Z) = beta(Z,Z,X)
@ B-freq = 0.059600  C-freq = 0.000000     beta(X;X,Z) = beta(X,Z,X)
@ B-freq = 0.059600  C-freq = 0.000000     beta(Y;X,Z) = beta(Y,Z,X)
@ B-freq = 0.059600  C-freq = 0.000000     beta(Z;X,Z) = beta(Z,Z,X)
@ B-freq = 0.079467  C-freq = 0.000000     beta(X;X,Z) = beta(X,Z,X)
@ B-freq = 0.079467  C-freq = 0.000000     beta(Y;X,Z) = beta(Y,Z,X)
@ B-freq = 0.079467  C-freq = 0.000000     beta(Z;X,Z) = beta(Z,Z,X)
@ B-freq = 0.000000  C-freq = 0.000000     beta(X;Y,Z) = beta(Z,Y,X)
@ B-freq = 0.000000  C-freq = 0.000000     beta(Y;Y,Z) = beta(Z,Y,Y)
@ B-freq = 0.000000  C-freq = 0.000000     beta(Z;Y,Z) = beta(Z,Z,Y)
@ B-freq = 0.019867  C-freq = 0.000000     beta(X;Y,Z) = beta(X,Z,Y)
@ B-freq = 0.019867  C-freq = 0.000000     beta(Y;Y,Z) = beta(Y,Z,Y)
@ B-freq = 0.019867  C-freq = 0.000000     beta(Z;Y,Z) = beta(Z,Z,Y)
@ B-freq = 0.039733  C-freq = 0.000000     beta(X;Y,Z) = beta(X,Z,Y)
@ B-freq = 0.039733  C-freq = 0.000000     beta(Y;Y,Z) = beta(Y,Z,Y)
@ B-freq = 0.039733  C-freq = 0.000000     beta(Z;Y,Z) = beta(Z,Z,Y)
@ B-freq = 0.059600  C-freq = 0.000000     beta(X;Y,Z) = beta(X,Z,Y)
@ B-freq = 0.059600  C-freq = 0.000000     beta(Y;Y,Z) = beta(Y,Z,Y)
@ B-freq = 0.059600  C-freq = 0.000000     beta(Z;Y,Z) = beta(Z,Z,Y)
@ B-freq = 0.079467  C-freq = 0.000000     beta(X;Y,Z) = beta(X,Z,Y)
@ B-freq = 0.079467  C-freq = 0.000000     beta(Y;Y,Z) = beta(Y,Z,Y)
@ B-freq = 0.079467  C-freq = 0.000000     beta(Z;Y,Z) = beta(Z,Z,Y)
@ B-freq = 0.000000  C-freq = 0.000000     beta(X;Z,Z) = beta(Z,Z,X)
@ B-freq = 0.000000  C-freq = 0.000000     beta(Y;Z,Z) = beta(Z,Z,Y)
@ B-freq = 0.000000  C-freq = 0.000000     beta(X;Z,Z) =     -0.00000000
@ B-freq = 0.000000  C-freq = 0.000000     beta(Y;Z,Z) =     -0.00040162
@ B-freq = 0.000000  C-freq = 0.000000     beta(Z;Z,Z) =      7.31522264
@ B-freq = 0.019867  C-freq = 0.000000     beta(X;Z,Z) =     -0.00000000
@ B-freq = 0.019867  C-freq = 0.000000     beta(Y;Z,Z) =     -0.00040539
@ B-freq = 0.019867  C-freq = 0.000000     beta(Z;Z,Z) =      7.35007780
@ B-freq = 0.039733  C-freq = 0.000000     beta(X;Z,Z) =     -0.00000000
@ B-freq = 0.039733  C-freq = 0.000000     beta(Y;Z,Z) =     -0.00041673
@ B-freq = 0.039733  C-freq = 0.000000     beta(Z;Z,Z) =      7.45625629
@ B-freq = 0.059600  C-freq = 0.000000     beta(X;Z,Z) =     -0.00000000
@ B-freq = 0.059600  C-freq = 0.000000     beta(Y;Z,Z) =     -0.00043577
@ B-freq = 0.059600  C-freq = 0.000000     beta(Z;Z,Z) =      7.63876488
@ B-freq = 0.079467  C-freq = 0.000000     beta(X;Z,Z) =     -0.00000000
@ B-freq = 0.079467  C-freq = 0.000000     beta(Y;Z,Z) =     -0.00046264
@ B-freq = 0.079467  C-freq = 0.000000     beta(Z;Z,Z) =      7.90653824
@ B-freq = 0.000000  C-freq = 0.019867     beta(X;X,Z) = beta(X,Z,X)
@ B-freq = 0.000000  C-freq = 0.019867     beta(Y;X,Z) = beta(Y,Z,X)
@ B-freq = 0.000000  C-freq = 0.019867     beta(Z;X,Z) = beta(Z,Z,X)
@ B-freq = 0.019867  C-freq = 0.019867     beta(X;X,Z) = beta(X,Z,X)
@ B-freq = 0.019867  C-freq = 0.019867     beta(Y;X,Z) = beta(Y,Z,X)
@ B-freq = 0.019867  C-freq = 0.019867     beta(Z;X,Z) = beta(Z,Z,X)
@ B-freq = 0.039733  C-freq = 0.019867     beta(X;X,Z) = beta(X,Z,X)
@ B-freq = 0.039733  C-freq = 0.019867     beta(Y;X,Z) = beta(Y,Z,X)
@ B-freq = 0.039733  C-freq = 0.019867     beta(Z;X,Z) = beta(Z,Z,X)
@ B-freq = 0.059600  C-freq = 0.019867     beta(X;X,Z) = beta(X,Z,X)
@ B-freq = 0.059600  C-freq = 0.019867     beta(Y;X,Z) = beta(Y,Z,X)
@ B-freq = 0.059600  C-freq = 0.019867     beta(Z;X,Z) = beta(Z,Z,X)
@ B-freq = 0.079467  C-freq = 0.019867     beta(X;X,Z) = beta(X,Z,X)
@ B-freq = 0.079467  C-freq = 0.019867     beta(Y;X,Z) = beta(Y,Z,X)
@ B-freq = 0.079467  C-freq = 0.019867     beta(Z;X,Z) = beta(Z,Z,X)
@ B-freq = 0.000000  C-freq = 0.019867     beta(X;Y,Z) = beta(X,Z,Y)
@ B-freq = 0.000000  C-freq = 0.019867     beta(Y;Y,Z) = beta(Y,Z,Y)
@ B-freq = 0.000000  C-freq = 0.019867     beta(Z;Y,Z) = beta(Z,Z,Y)
@ B-freq = 0.019867  C-freq = 0.019867     beta(X;Y,Z) = beta(X,Z,Y)
@ B-freq = 0.019867  C-freq = 0.019867     beta(Y;Y,Z) = beta(Y,Z,Y)
@ B-freq = 0.019867  C-freq = 0.019867     beta(Z;Y,Z) = beta(Z,Z,Y)
@ B-freq = 0.039733  C-freq = 0.019867     beta(X;Y,Z) = beta(X,Z,Y)
@ B-freq = 0.039733  C-freq = 0.019867     beta(Y;Y,Z) = beta(Y,Z,Y)
@ B-freq = 0.039733  C-freq = 0.019867     beta(Z;Y,Z) = beta(Z,Z,Y)
@ B-freq = 0.059600  C-freq = 0.019867     beta(X;Y,Z) = beta(X,Z,Y)
@ B-freq = 0.059600  C-freq = 0.019867     beta(Y;Y,Z) = beta(Y,Z,Y)
@ B-freq = 0.059600  C-freq = 0.019867     beta(Z;Y,Z) = beta(Z,Z,Y)
@ B-freq = 0.079467  C-freq = 0.019867     beta(X;Y,Z) = beta(X,Z,Y)
@ B-freq = 0.079467  C-freq = 0.019867     beta(Y;Y,Z) = beta(Y,Z,Y)
@ B-freq = 0.079467  C-freq = 0.019867     beta(Z;Y,Z) = beta(Z,Z,Y)
@ B-freq = 0.000000  C-freq = 0.019867     beta(X;Z,Z) = beta(X,Z,Z)
@ B-freq = 0.000000  C-freq = 0.019867     beta(Y;Z,Z) = beta(Y,Z,Z)
@ B-freq = 0.000000  C-freq = 0.019867     beta(Z;Z,Z) = beta(Z,Z,Z)
@ B-freq = 0.019867  C-freq = 0.019867     beta(X;Z,Z) =     -0.00000000
@ B-freq = 0.019867  C-freq = 0.019867     beta(Y;Z,Z) =     -0.00042328
@ B-freq = 0.019867  C-freq = 0.019867     beta(Z;Z,Z) =      7.42059234
@ B-freq = 0.039733  C-freq = 0.019867     beta(X;Z,Z) =     -0.00000000
@ B-freq = 0.039733  C-freq = 0.019867     beta(Y;Z,Z) =     -0.00044936
@ B-freq = 0.039733  C-freq = 0.019867     beta(Z;Z,Z) =      7.56491680
@ B-freq = 0.059600  C-freq = 0.019867     beta(X;Z,Z) =     -0.00000000
@ B-freq = 0.059600  C-freq = 0.019867     beta(Y;Z,Z) =     -0.00048421
@ B-freq = 0.059600  C-freq = 0.019867     beta(Z;Z,Z) =      7.78998924
@ B-freq = 0.079467  C-freq = 0.019867     beta(X;Z,Z) =     -0.00000000
@ B-freq = 0.079467  C-freq = 0.019867     beta(Y;Z,Z) =     -0.00052841
@ B-freq = 0.079467  C-freq = 0.019867     beta(Z;Z,Z) =      8.10714968
@ B-freq = 0.000000  C-freq = 0.039733     beta(X;X,Z) = beta(X,Z,X)
@ B-freq = 0.000000  C-freq = 0.039733     beta(Y;X,Z) = beta(Y,Z,X)
@ B-freq = 0.000000  C-freq = 0.039733     beta(Z;X,Z) = beta(Z,Z,X)
@ B-freq = 0.019867  C-freq = 0.039733     beta(X;X,Z) = beta(X,Z,X)
@ B-freq = 0.019867  C-freq = 0.039733     beta(Y;X,Z) = beta(Y,Z,X)
@ B-freq = 0.019867  C-freq = 0.039733     beta(Z;X,Z) = beta(Z,Z,X)
@ B-freq = 0.039733  C-freq = 0.039733     beta(X;X,Z) = beta(X,Z,X)
@ B-freq = 0.039733  C-freq = 0.039733     beta(Y;X,Z) = beta(Y,Z,X)
@ B-freq = 0.039733  C-freq = 0.039733     beta(Z;X,Z) = beta(Z,Z,X)
@ B-freq = 0.059600  C-freq = 0.039733     beta(X;X,Z) = beta(X,Z,X)
@ B-freq = 0.059600  C-freq = 0.039733     beta(Y;X,Z) = beta(Y,Z,X)
@ B-freq = 0.059600  C-freq = 0.039733     beta(Z;X,Z) = beta(Z,Z,X)
@ B-freq = 0.079467  C-freq = 0.039733     beta(X;X,Z) = beta(X,Z,X)
@ B-freq = 0.079467  C-freq = 0.039733     beta(Y;X,Z) = beta(Y,Z,X)
@ B-freq = 0.079467  C-freq = 0.039733     beta(Z;X,Z) = beta(Z,Z,X)
@ B-freq = 0.000000  C-freq = 0.039733     beta(X;Y,Z) = beta(X,Z,Y)
@ B-freq = 0.000000  C-freq = 0.039733     beta(Y;Y,Z) = beta(Y,Z,Y)
@ B-freq = 0.000000  C-freq = 0.039733     beta(Z;Y,Z) = beta(Z,Z,Y)
@ B-freq = 0.019867  C-freq = 0.039733     beta(X;Y,Z) = beta(X,Z,Y)
@ B-freq = 0.019867  C-freq = 0.039733     beta(Y;Y,Z) = beta(Y,Z,Y)
@ B-freq = 0.019867  C-freq = 0.039733     beta(Z;Y,Z) = beta(Z,Z,Y)
@ B-freq = 0.039733  C-freq = 0.039733     beta(X;Y,Z) = beta(X,Z,Y)
@ B-freq = 0.039733  C-freq = 0.039733     beta(Y;Y,Z) = beta(Y,Z,Y)
@ B-freq = 0.039733  C-freq = 0.039733     beta(Z;Y,Z) = beta(Z,Z,Y)
@ B-freq = 0.059600  C-freq = 0.039733     beta(X;Y,Z) = beta(X,Z,Y)
@ B-freq = 0.059600  C-freq = 0.039733     beta(Y;Y,Z) = beta(Y,Z,Y)
@ B-freq = 0.059600  C-freq = 0.039733     beta(Z;Y,Z) = beta(Z,Z,Y)
@ B-freq = 0.079467  C-freq = 0.039733     beta(X;Y,Z) = beta(X,Z,Y)
@ B-freq = 0.079467  C-freq = 0.039733     beta(Y;Y,Z) = beta(Y,Z,Y)
@ B-freq = 0.079467  C-freq = 0.039733     beta(Z;Y,Z) = beta(Z,Z,Y)
@ B-freq = 0.000000  C-freq = 0.039733     beta(X;Z,Z) = beta(X,Z,Z)
@ B-freq = 0.000000  C-freq = 0.039733     beta(Y;Z,Z) = beta(Y,Z,Z)
@ B-freq = 0.000000  C-freq = 0.039733     beta(Z;Z,Z) = beta(Z,Z,Z)
@ B-freq = 0.019867  C-freq = 0.039733     beta(X;Z,Z) = beta(X,Z,Z)
@ B-freq = 0.019867  C-freq = 0.039733     beta(Y;Z,Z) = beta(Y,Z,Z)
@ B-freq = 0.019867  C-freq = 0.039733     beta(Z;Z,Z) = beta(Z,Z,Z)
@ B-freq = 0.039733  C-freq = 0.039733     beta(X;Z,Z) =     -0.00000000
@ B-freq = 0.039733  C-freq = 0.039733     beta(Y;Z,Z) =     -0.00049118
@ B-freq = 0.039733  C-freq = 0.039733     beta(Z;Z,Z) =      7.75175559
@ B-freq = 0.059600  C-freq = 0.039733     beta(X;Z,Z) =     -0.00000000
@ B-freq = 0.059600  C-freq = 0.039733     beta(Y;Z,Z) =     -0.00054320
@ B-freq = 0.059600  C-freq = 0.039733     beta(Z;Z,Z) =      8.02602823
@ B-freq = 0.079467  C-freq = 0.039733     beta(X;Z,Z) =     -0.00000000
@ B-freq = 0.079467  C-freq = 0.039733     beta(Y;Z,Z) =     -0.00060645
@ B-freq = 0.079467  C-freq = 0.039733     beta(Z;Z,Z) =      8.40211771
@ B-freq = 0.000000  C-freq = 0.059600     beta(X;X,Z) = beta(X,Z,X)
@ B-freq = 0.000000  C-freq = 0.059600     beta(Y;X,Z) = beta(Y,Z,X)
@ B-freq = 0.000000  C-freq = 0.059600     beta(Z;X,Z) = beta(Z,Z,X)
@ B-freq = 0.019867  C-freq = 0.059600     beta(X;X,Z) = beta(X,Z,X)
@ B-freq = 0.019867  C-freq = 0.059600     beta(Y;X,Z) = beta(Y,Z,X)
@ B-freq = 0.019867  C-freq = 0.059600     beta(Z;X,Z) = beta(Z,Z,X)
@ B-freq = 0.039733  C-freq = 0.059600     beta(X;X,Z) = beta(X,Z,X)
@ B-freq = 0.039733  C-freq = 0.059600     beta(Y;X,Z) = beta(Y,Z,X)
@ B-freq = 0.039733  C-freq = 0.059600     beta(Z;X,Z) = beta(Z,Z,X)
@ B-freq = 0.059600  C-freq = 0.059600     beta(X;X,Z) = beta(X,Z,X)
@ B-freq = 0.059600  C-freq = 0.059600     beta(Y;X,Z) = beta(Y,Z,X)
@ B-freq = 0.059600  C-freq = 0.059600     beta(Z;X,Z) = beta(Z,Z,X)
@ B-freq = 0.079467  C-freq = 0.059600     beta(X;X,Z) = beta(X,Z,X)
@ B-freq = 0.079467  C-freq = 0.059600     beta(Y;X,Z) = beta(Y,Z,X)
@ B-freq = 0.079467  C-freq = 0.059600     beta(Z;X,Z) = beta(Z,Z,X)
@ B-freq = 0.000000  C-freq = 0.059600     beta(X;Y,Z) = beta(X,Z,Y)
@ B-freq = 0.000000  C-freq = 0.059600     beta(Y;Y,Z) = beta(Y,Z,Y)
@ B-freq = 0.000000  C-freq = 0.059600     beta(Z;Y,Z) = beta(Z,Z,Y)
@ B-freq = 0.019867  C-freq = 0.059600     beta(X;Y,Z) = beta(X,Z,Y)
@ B-freq = 0.019867  C-freq = 0.059600     beta(Y;Y,Z) = beta(Y,Z,Y)
@ B-freq = 0.019867  C-freq = 0.059600     beta(Z;Y,Z) = beta(Z,Z,Y)
@ B-freq = 0.039733  C-freq = 0.059600     beta(X;Y,Z) = beta(X,Z,Y)
@ B-freq = 0.039733  C-freq = 0.059600     beta(Y;Y,Z) = beta(Y,Z,Y)
@ B-freq = 0.039733  C-freq = 0.059600     beta(Z;Y,Z) = beta(Z,Z,Y)
@ B-freq = 0.059600  C-freq = 0.059600     beta(X;Y,Z) = beta(X,Z,Y)
@ B-freq = 0.059600  C-freq = 0.059600     beta(Y;Y,Z) = beta(Y,Z,Y)
@ B-freq = 0.059600  C-freq = 0.059600     beta(Z;Y,Z) = beta(Z,Z,Y)
@ B-freq = 0.079467  C-freq = 0.059600     beta(X;Y,Z) = beta(X,Z,Y)
@ B-freq = 0.079467  C-freq = 0.059600     beta(Y;Y,Z) = beta(Y,Z,Y)
@ B-freq = 0.079467  C-freq = 0.059600     beta(Z;Y,Z) = beta(Z,Z,Y)
@ B-freq = 0.000000  C-freq = 0.059600     beta(X;Z,Z) = beta(X,Z,Z)
@ B-freq = 0.000000  C-freq = 0.059600     beta(Y;Z,Z) = beta(Y,Z,Z)
@ B-freq = 0.000000  C-freq = 0.059600     beta(Z;Z,Z) = beta(Z,Z,Z)
@ B-freq = 0.019867  C-freq = 0.059600     beta(X;Z,Z) = beta(X,Z,Z)
@ B-freq = 0.019867  C-freq = 0.059600     beta(Y;Z,Z) = beta(Y,Z,Z)
@ B-freq = 0.019867  C-freq = 0.059600     beta(Z;Z,Z) = beta(Z,Z,Z)
@ B-freq = 0.039733  C-freq = 0.059600     beta(X;Z,Z) = beta(X,Z,Z)
@ B-freq = 0.039733  C-freq = 0.059600     beta(Y;Z,Z) = beta(Y,Z,Z)
@ B-freq = 0.039733  C-freq = 0.059600     beta(Z;Z,Z) = beta(Z,Z,Z)
@ B-freq = 0.059600  C-freq = 0.059600     beta(X;Z,Z) =     -0.00000000
@ B-freq = 0.059600  C-freq = 0.059600     beta(Y;Z,Z) =     -0.00061419
@ B-freq = 0.059600  C-freq = 0.059600     beta(Z;Z,Z) =      8.35906852
@ B-freq = 0.079467  C-freq = 0.059600     beta(X;Z,Z) =     -0.00000000
@ B-freq = 0.079467  C-freq = 0.059600     beta(Y;Z,Z) =     -0.00069856
@ B-freq = 0.079467  C-freq = 0.059600     beta(Z;Z,Z) =      8.80750896
@ B-freq = 0.000000  C-freq = 0.079467     beta(X;X,Z) = beta(X,Z,X)
@ B-freq = 0.000000  C-freq = 0.079467     beta(Y;X,Z) = beta(Y,Z,X)
@ B-freq = 0.000000  C-freq = 0.079467     beta(Z;X,Z) = beta(Z,Z,X)
@ B-freq = 0.019867  C-freq = 0.079467     beta(X;X,Z) = beta(X,Z,X)
@ B-freq = 0.019867  C-freq = 0.079467     beta(Y;X,Z) = beta(Y,Z,X)
@ B-freq = 0.019867  C-freq = 0.079467     beta(Z;X,Z) = beta(Z,Z,X)
@ B-freq = 0.039733  C-freq = 0.079467     beta(X;X,Z) = beta(X,Z,X)
@ B-freq = 0.039733  C-freq = 0.079467     beta(Y;X,Z) = beta(Y,Z,X)
@ B-freq = 0.039733  C-freq = 0.079467     beta(Z;X,Z) = beta(Z,Z,X)
@ B-freq = 0.059600  C-freq = 0.079467     beta(X;X,Z) = beta(X,Z,X)
@ B-freq = 0.059600  C-freq = 0.079467     beta(Y;X,Z) = beta(Y,Z,X)
@ B-freq = 0.059600  C-freq = 0.079467     beta(Z;X,Z) = beta(Z,Z,X)
@ B-freq = 0.079467  C-freq = 0.079467     beta(X;X,Z) = beta(X,Z,X)
@ B-freq = 0.079467  C-freq = 0.079467     beta(Y;X,Z) = beta(Y,Z,X)
@ B-freq = 0.079467  C-freq = 0.079467     beta(Z;X,Z) = beta(Z,Z,X)
@ B-freq = 0.000000  C-freq = 0.079467     beta(X;Y,Z) = beta(X,Z,Y)
@ B-freq = 0.000000  C-freq = 0.079467     beta(Y;Y,Z) = beta(Y,Z,Y)
@ B-freq = 0.000000  C-freq = 0.079467     beta(Z;Y,Z) = beta(Z,Z,Y)
@ B-freq = 0.019867  C-freq = 0.079467     beta(X;Y,Z) = beta(X,Z,Y)
@ B-freq = 0.019867  C-freq = 0.079467     beta(Y;Y,Z) = beta(Y,Z,Y)
@ B-freq = 0.019867  C-freq = 0.079467     beta(Z;Y,Z) = beta(Z,Z,Y)
@ B-freq = 0.039733  C-freq = 0.079467     beta(X;Y,Z) = beta(X,Z,Y)
@ B-freq = 0.039733  C-freq = 0.079467     beta(Y;Y,Z) = beta(Y,Z,Y)
@ B-freq = 0.039733  C-freq = 0.079467     beta(Z;Y,Z) = beta(Z,Z,Y)
@ B-freq = 0.059600  C-freq = 0.079467     beta(X;Y,Z) = beta(X,Z,Y)
@ B-freq = 0.059600  C-freq = 0.079467     beta(Y;Y,Z) = beta(Y,Z,Y)
@ B-freq = 0.059600  C-freq = 0.079467     beta(Z;Y,Z) = beta(Z,Z,Y)
@ B-freq = 0.079467  C-freq = 0.079467     beta(X;Y,Z) = beta(X,Z,Y)
@ B-freq = 0.079467  C-freq = 0.079467     beta(Y;Y,Z) = beta(Y,Z,Y)
@ B-freq = 0.079467  C-freq = 0.079467     beta(Z;Y,Z) = beta(Z,Z,Y)
@ B-freq = 0.000000  C-freq = 0.079467     beta(X;Z,Z) = beta(X,Z,Z)
@ B-freq = 0.000000  C-freq = 0.079467     beta(Y;Z,Z) = beta(Y,Z,Z)
@ B-freq = 0.000000  C-freq = 0.079467     beta(Z;Z,Z) = beta(Z,Z,Z)
@ B-freq = 0.019867  C-freq = 0.079467     beta(X;Z,Z) = beta(X,Z,Z)
@ B-freq = 0.019867  C-freq = 0.079467     beta(Y;Z,Z) = beta(Y,Z,Z)
@ B-freq = 0.019867  C-freq = 0.079467     beta(Z;Z,Z) = beta(Z,Z,Z)
@ B-freq = 0.039733  C-freq = 0.079467     beta(X;Z,Z) = beta(X,Z,Z)
@ B-freq = 0.039733  C-freq = 0.079467     beta(Y;Z,Z) = beta(Y,Z,Z)
@ B-freq = 0.039733  C-freq = 0.079467     beta(Z;Z,Z) = beta(Z,Z,Z)
@ B-freq = 0.059600  C-freq = 0.079467     beta(X;Z,Z) = beta(X,Z,Z)
@ B-freq = 0.059600  C-freq = 0.079467     beta(Y;Z,Z) = beta(Y,Z,Z)
@ B-freq = 0.059600  C-freq = 0.079467     beta(Z;Z,Z) = beta(Z,Z,Z)
@ B-freq = 0.079467  C-freq = 0.079467     beta(X;Z,Z) =     -0.00000000
@ B-freq = 0.079467  C-freq = 0.079467     beta(Y;Z,Z) =     -0.00080633
@ B-freq = 0.079467  C-freq = 0.079467     beta(Z;Z,Z) =      9.34723124

  Total CPU  time used in RESPONSE:  2 minutes  2 seconds
  Total wall time used in RESPONSE:  2 minutes  2 seconds


                   .-------------------------------------------.
                   | End of Dynamic Property Section (RESPONS) |
                   `-------------------------------------------'

  Total CPU  time used in DALTON:  2 minutes  7 seconds
  Total wall time used in DALTON:  2 minutes  7 seconds

 
     Date and time (Linux)  : Thu Sep  7 17:51:07 2023
     Host name              : sn-mem                                  
