

     ************************************************************************
     *************** Dalton - An Electronic Structure Program ***************
     ************************************************************************

    This is output from DALTON release Dalton2020.0 (2020)
         ( Web site: http://daltonprogram.org )

   ----------------------------------------------------------------------------

    NOTE:
     
    Dalton is an experimental code for the evaluation of molecular
    properties using (MC)SCF, DFT, CI, and CC wave functions.
    The authors accept no responsibility for the performance of
    the code or for the correctness of the results.
     
    The code (in whole or part) is provided under a licence and
    is not to be reproduced for further distribution without
    the written permission of the authors or their representatives.
     
    See the home page "http://daltonprogram.org" for further information.
     
    If results obtained with this code are published,
    the appropriate citations would be both of:
     
       K. Aidas, C. Angeli, K. L. Bak, V. Bakken, R. Bast,
       L. Boman, O. Christiansen, R. Cimiraglia, S. Coriani,
       P. Dahle, E. K. Dalskov, U. Ekstroem,
       T. Enevoldsen, J. J. Eriksen, P. Ettenhuber, B. Fernandez,
       L. Ferrighi, H. Fliegl, L. Frediani, K. Hald, A. Halkier,
       C. Haettig, H. Heiberg, T. Helgaker, A. C. Hennum,
       H. Hettema, E. Hjertenaes, S. Hoest, I.-M. Hoeyvik,
       M. F. Iozzi, B. Jansik, H. J. Aa. Jensen, D. Jonsson,
       P. Joergensen, J. Kauczor, S. Kirpekar,
       T. Kjaergaard, W. Klopper, S. Knecht, R. Kobayashi, H. Koch,
       J. Kongsted, A. Krapp, K. Kristensen, A. Ligabue,
       O. B. Lutnaes, J. I. Melo, K. V. Mikkelsen, R. H. Myhre,
       C. Neiss, C. B. Nielsen, P. Norman, J. Olsen,
       J. M. H. Olsen, A. Osted, M. J. Packer, F. Pawlowski,
       T. B. Pedersen, P. F. Provasi, S. Reine, Z. Rinkevicius,
       T. A. Ruden, K. Ruud, V. Rybkin, P. Salek, C. C. M. Samson,
       A. Sanchez de Meras, T. Saue, S. P. A. Sauer,
       B. Schimmelpfennig, K. Sneskov, A. H. Steindal,
       K. O. Sylvester-Hvid, P. R. Taylor, A. M. Teale,
       E. I. Tellgren, D. P. Tew, A. J. Thorvaldsen, L. Thoegersen,
       O. Vahtras, M. A. Watson, D. J. D. Wilson, M. Ziolkowski
       and H. Agren,
       "The Dalton quantum chemistry program system",
       WIREs Comput. Mol. Sci. 2014, 4:269–284 (doi: 10.1002/wcms.1172)
     
    and
     
       Dalton, a molecular electronic structure program,
       Release Dalton2020.0 (2020), see http://daltonprogram.org
   ----------------------------------------------------------------------------

    Authors in alphabetical order (Major contribution(s) in parenthesis):

  Kestutis Aidas,           Vilnius University,           Lithuania   (QM/MM)
  Celestino Angeli,         University of Ferrara,        Italy       (NEVPT2)
  Keld L. Bak,              UNI-C,                        Denmark     (AOSOPPA, non-adiabatic coupling, magnetic properties)
  Vebjoern Bakken,          University of Oslo,           Norway      (DALTON; geometry optimizer, symmetry detection)
  Radovan Bast,             UiT The Arctic U. of Norway,  Norway      (DALTON installation and execution frameworks)
  Pablo Baudin,             University of Valencia,       Spain       (Cholesky excitation energies)
  Linus Boman,              NTNU,                         Norway      (Cholesky decomposition and subsystems)
  Bruno N. Cabral Tenorio,  Technical Univ. of Denmark,   Denmark     (Lanczos-based CC methods)
  Ove Christiansen,         Aarhus University,            Denmark     (CC module)
  Renzo Cimiraglia,         University of Ferrara,        Italy       (NEVPT2)
  Sonia Coriani,            Technical Univ. of Denmark,   Denmark     (CC and RESPONS modules)
  Janusz Cukras,            University of Warsaw,         Poland      (MChD in RESPONS)
  Paal Dahle,               University of Oslo,           Norway      (Parallelization)
  Erik K. Dalskov,          UNI-C,                        Denmark     (SOPPA)
  Thomas Enevoldsen,        Univ. of Southern Denmark,    Denmark     (SOPPA)
  Janus J. Eriksen,         Aarhus University,            Denmark     (Polarizable embedding, TDA)
  Rasmus Faber,             Technical Univ. of Denmark,   Denmark     (Vib.avg. NMR w. SOPPA, parallel AO-SOPPA, CVS-CC and EOMCC)
  Tobias Fahleson,          KTH Stockholm,                Sweden      (Damped cubic response)
  Berta Fernandez,          U. of Santiago de Compostela, Spain       (Doublet spin, ESR in RESPONS)
  Lara Ferrighi,            Aarhus University,            Denmark     (PCM Cubic response)
  Heike Fliegl,             University of Oslo,           Norway      (CCSD(R12))
  Luca Frediani,            UiT The Arctic U. of Norway,  Norway      (PCM)
  Emmanuel Fromager,        Univ. Strasbourg,             France      (MC-srDFT)
  Bin Gao,                  UiT The Arctic U. of Norway,  Norway      (Gen1Int library)
  Andre S. P. Gomes,        CNRS/Universite de Lille,     France      (Frozen density embedding)
  Christof Haettig,         Ruhr-University Bochum,       Germany     (CC module)
  Kasper Hald,              Aarhus University,            Denmark     (CC module)
  Asger Halkier,            Aarhus University,            Denmark     (CC module)
  Frederik Beyer Hansen,    University of Copenhagen,     Denmark     (Parallel AO-SOPPA)
  Erik D. Hedegaard,        Univ. of Southern Denmark,    Denmark     (Polarizable embedding, QM/MM, and MC-srDFT)
  Hanne Heiberg,            University of Oslo,           Norway      (Geometry analysis, selected one-electron integrals)
  Trygve Helgaker,          University of Oslo,           Norway      (DALTON; ABACUS, ERI, DFT modules, London, and much more)
  Alf Christian Hennum,     University of Oslo,           Norway      (Parity violation)
  Hinne Hettema,            University of Auckland,       New Zealand (Quadratic response in RESPONS; SIRIUS supersymmetry)
  Eirik Hjertenaes,         NTNU,                         Norway      (Cholesky decomposition)
  Pi A. B. Haase,           University of Copenhagen,     Denmark     (Triplet AO-SOPPA)
  Maria Francesca Iozzi,    University of Oslo,           Norway      (RPA)
  Christoph Jacob           TU Braunschweig               Germany     (Frozen density embedding)
  Brano Jansik              Technical Univ. of Ostrava    Czech Rep.  (DFT cubic response)
  Hans Joergen Aa. Jensen,  Univ. of Southern Denmark,    Denmark     (DALTON; SIRIUS, RESPONS, ABACUS, MC-srDFT, and much more)
  Dan Jonsson,              UiT The Arctic U. of Norway,  Norway      (Cubic response in RESPONS module)
  Poul Joergensen,          Aarhus University,            Denmark     (RESPONS, ABACUS, and CC modules)
  Maciej Kaminski,          University of Warsaw,         Poland      (CPPh in RESPONS)
  Joanna Kauczor,           Linkoeping University,        Sweden      (Complex polarization propagator (CPP) module)
  Sheela Kirpekar,          Univ. of Southern Denmark,    Denmark     (Mass-velocity & Darwin integrals)
  Erik Kjellgren,           Univ. of Southern Denmark,    Denmark     (MC-srDFT)
  Wim Klopper,              KIT Karlsruhe,                Germany     (R12 code in CC, SIRIUS, and ABACUS modules)
  Stefan Knecht,            ETH Zurich,                   Switzerland (Parallel CI and MCSCF, MC-srDFT)
  Rika Kobayashi,           Australian National Univ.,    Australia   (DIIS in CC, London in MCSCF)
  Henrik Koch,              NTNU,                         Norway      (CC module, Cholesky decomposition)
  Jacob Kongsted,           Univ. of Southern Denmark,    Denmark     (Polarizable embedding, polarizable density embedding, QM/MM)
  Andrea Ligabue,           University of Modena,         Italy       (CTOCD, AOSOPPA)
  Nanna H. List             Univ. of Southern Denmark,    Denmark     (Polarizable embedding)
  Ola B. Lutnaes,           University of Oslo,           Norway      (DFT Hessian)
  Juan I. Melo,             University of Buenos Aires,   Argentina   (LRESC, Relativistic Effects on NMR Shieldings)
  Kurt V. Mikkelsen,        University of Copenhagen,     Denmark     (MC-SCRF and QM/MM)
  Rolf H. Myhre,            NTNU,                         Norway      (Subsystems and CC3)
  Christian Neiss,          Univ. Erlangen-Nuernberg,     Germany     (CCSD(R12))
  Christian B. Nielsen,     University of Copenhagen,     Denmark     (QM/MM)
  Patrick Norman,           KTH Stockholm,                Sweden      (Cubic response and complex frequency response in RESPONS)
  Jeppe Olsen,              Aarhus University,            Denmark     (SIRIUS CI/density modules)
  Jogvan Magnus H. Olsen,   Aarhus University,            Denmark     (Polarizable embedding and polarizable density embedding)
  Anders Osted,             Copenhagen University,        Denmark     (QM/MM)
  Martin J. Packer,         University of Sheffield,      UK          (SOPPA)
  Filip Pawlowski,          Kazimierz Wielki University,  Poland      (CC3)
  Morten N. Pedersen,       Univ. of Southern Denmark,    Denmark     (Polarizable embedding)
  Thomas B. Pedersen,       University of Oslo,           Norway      (Cholesky decomposition)
  Patricio F. Provasi,      University of Northeastern,   Argentina   (Analysis of coupling constants in localized orbitals)
  Peter Reinholdt,          Univ. of Southern Denmark,    Denmark     (Polarizable embedding and polarizable density embedding)
  Zilvinas Rinkevicius,     KTH Stockholm,                Sweden      (open-shell DFT, ESR)
  Elias Rudberg,            KTH Stockholm,                Sweden      (DFT grid and basis info)
  Torgeir A. Ruden,         University of Oslo,           Norway      (Numerical derivatives in ABACUS)
  Kenneth Ruud,             UiT The Arctic U. of Norway,  Norway      (DALTON; ABACUS magnetic properties and much more)
  Pawel Salek,              KTH Stockholm,                Sweden      (DALTON; DFT code)
  Claire C. M. Samson       University of Karlsruhe       Germany     (Boys localization, r12 integrals in ERI)
  Alfredo Sanchez de Meras, University of Valencia,       Spain       (CC module, Cholesky decomposition)
  Trond Saue,               Paul Sabatier University,     France      (direct Fock matrix construction)
  Stephan P. A. Sauer,      University of Copenhagen,     Denmark     (SOPPA(CCSD), SOPPA prop., AOSOPPA, vibrational g-factors)
  Bernd Schimmelpfennig,    Forschungszentrum Karlsruhe,  Germany     (AMFI module)
  Anna K. Schnack-Petersen, University of Copenhagen,     Denmark     (RPA(D) and HRPA(D) properties in AOSOPPA)
  Kristian Sneskov,         Aarhus University,            Denmark     (Polarizable embedding, QM/MM)
  Arnfinn H. Steindal,      UiT The Arctic U. of Norway,  Norway      (parallel QM/MM, polarizable embedding)
  Casper Steinmann,         Aalborg University,           Denmark     (QFIT, polarizable embedding)
  K. O. Sylvester-Hvid,     University of Copenhagen,     Denmark     (MC-SCRF)
  Peter R. Taylor,          VLSCI/Univ. of Melbourne,     Australia   (Symmetry handling ABACUS, integral transformation)
  Andrew M. Teale,          University of Nottingham,     England     (DFT-AC, DFT-D)
  David P. Tew,             University of Bristol,        England     (CCSD(R12))
  Julien Toulouse,          Sorbonne Univ.,               France      (MC-srDFT)
  Olav Vahtras,             KTH Stockholm,                Sweden      (Triplet response, spin-orbit, ESR, TDDFT, open-shell DFT)
  Lucas Visscher,           Vrije Universiteit Amsterdam, Netherlands (Frozen density embedding)
  David J. Wilson,          La Trobe University,          Australia   (DFT Hessian and DFT magnetizabilities)
  Hans Agren,               KTH Stockholm,                Sweden      (SIRIUS module, RESPONS, MC-SCRF solvation)
 --------------------------------------------------------------------------------

     Date and time (Linux)  : Thu Sep  7 21:33:25 2023
     Host name              : sn-mem                                  

 * Work memory size             :    64000000 =  488.28 megabytes.

 * Directories for basis set searches:
   1) /gpfs/projects/rjh/adrian/august_no_symmetry/dalton/hf/H2O/dipole
   2) /gpfs/projects/rjh/adrian/dalton/build/basis


Compilation information
-----------------------

 Who compiled             | ahurtado
 Host                     | sn-mem
 System                   | Linux-3.10.0-1160.24.1.el7.x86_64
 CMake generator          | Unix Makefiles
 Processor                | x86_64
 64-bit integers          | OFF
 MPI                      | ON
 Fortran compiler         | /gpfs/software/intel/oneAPI/2021_4/mpi/2021.4.0/bi
                          | n/mpif90
 Fortran compiler version | GNU Fortran (GCC) 11.2.0
 C compiler               | /gpfs/software/intel/oneAPI/2021_4/mpi/2021.4.0/bi
                          | n/mpicc
 C compiler version       | gcc (GCC) 11.2.0
 C++ compiler             | /gpfs/software/intel/oneAPI/2021_4/mpi/2021.4.0/bi
                          | n/mpicxx
 C++ compiler version     | unknown
 BLAS                     | /gpfs/software/intel/oneAPI/2021_4/mkl/2021.4.0/li
                          | b/intel64/libmkl_gf_lp64.so;/gpfs/software/intel/o
                          | neAPI/2021_4/mkl/2021.4.0/lib/intel64/libmkl_seque
                          | ntial.so;/gpfs/software/intel/oneAPI/2021_4/mkl/20
                          | 21.4.0/lib/intel64/libmkl_core.so;/usr/lib64/libpt
                          | hread.so;/usr/lib64/libm.so
 LAPACK                   | /gpfs/software/intel/oneAPI/2021_4/mkl/2021.4.0/li
                          | b/intel64/libmkl_lapack95_lp64.a;/gpfs/software/in
                          | tel/oneAPI/2021_4/mkl/2021.4.0/lib/intel64/libmkl_
                          | gf_lp64.so
 Static linking           | OFF
 Last Git revision        | 66052b3af5ea7225e31178bf9a8b031913c72190
 Git branch               | (HEAD detached at Dalton2020.0)
 Configuration time       | 2023-01-11 13:33:37.731835

 * MPI parallel run using 5 processes.


   Content of the .dal input file
 ----------------------------------

**DALTON INPUT
.RUN RESPONSE
.DIRECT
**WAVE FUNCTIONS
.HF
**PROPERTIES
**RESPONSE
*QUADRA
.DIPLEN
.FREQUENCIES
5
0.0 0.0198666875 0.039733375 0.0596000625 0.07946675
**END OF DALTON INPUT


   Content of the .mol file
 ----------------------------

BASIS
aug-cc-pCVQZ
blah
blah
Atomtype=2 Angstrom Charge=0 Nosymmmetry
Charge=8 Atoms=1
O_a 0.000000000000 0.000000000000 0.117299997610
Charge=1 Atoms=2
H_a 0.000000000000 0.757199998838 -0.469200001024
H_b 0.000000000000 -0.757199998838 -0.469200001024


       *******************************************************************
       *********** Output from DALTON general input processing ***********
       *******************************************************************

 --------------------------------------------------------------------------------
   Overall default print level:    0
   Print level for DALTON.STAT:    1

    Parallel calculation using MPI
    AO-direct calculation (in sections where implemented)
    HERMIT 1- and 2-electron integral sections will be executed
    "Old" integral transformation used (limited to max 255 basis functions)
    Wave function sections will be executed (SIRIUS module)
    Dynamic molecular response properties section will be executed (RESPONSE module)
 --------------------------------------------------------------------------------


   ****************************************************************************
   *************** Output of molecule and basis set information ***************
   ****************************************************************************


    The two title cards from your ".mol" input:
    ------------------------------------------------------------------------
 1: blah                                                                    
 2: blah                                                                    
    ------------------------------------------------------------------------

  Coordinates are entered in Angstrom and converted to atomic units.
          - Conversion factor : 1 bohr = 0.52917721 A

  Atomic type no.    1
  --------------------
  Nuclear charge:   8.00000
  Number of symmetry independent centers:    1
  Number of basis sets to read;    2
  Basis set file used for this atomic type with Z =   8 :
     "/gpfs/projects/rjh/adrian/dalton/build/basis/aug-cc-pCVQZ"

  Atomic type no.    2
  --------------------
  Nuclear charge:   1.00000
  Number of symmetry independent centers:    2
  Number of basis sets to read;    2
  Basis set file used for this atomic type with Z =   1 :
     "/gpfs/projects/rjh/adrian/dalton/build/basis/aug-cc-pCVQZ"


                         SYMGRP: Point group information
                         -------------------------------

@    Point group: C1 


                                 Isotopic Masses
                                 ---------------

                           O_a        15.994915
                           H_a         1.007825
                           H_b         1.007825

                       Total mass:    18.010565 amu
                       Natural abundance:  99.730 %

 Center-of-mass coordinates (a.u.):    0.000000    0.000000    0.097627
 Center-of-mass coordinates (Angs):    0.000000    0.000000    0.051662


  Atoms and basis sets
  --------------------

  Number of atom types :    2
  Total number of atoms:    3

  Basis set used is "aug-cc-pCVQZ" from the basis set library.

  label    atoms   charge   prim   cont     basis
  ----------------------------------------------------------------------
  O_          1    8.0000   122   109      [16s10p6d4f2g|9s8p6d4f2g]                          
  H_          2    1.0000    48    46      [7s4p3d2f|5s4p3d2f]                                
  ----------------------------------------------------------------------
  total:      3   10.0000   218   201
  ----------------------------------------------------------------------
  Spherical harmonic basis used.

  Threshold for neglecting AO integrals:  1.00D-12


  Cartesian Coordinates (a.u.)
  ----------------------------

  Total number of coordinates:    9
  O_a     :     1  x   0.0000000000    2  y   0.0000000000    3  z   0.2216648699
  H_a     :     4  x   0.0000000000    5  y   1.4309006196    6  z  -0.8866594998
  H_b     :     7  x   0.0000000000    8  y  -1.4309006196    9  z  -0.8866594998


   Interatomic separations (in Angstrom):
   --------------------------------------

            O_a         H_a         H_b   
            ------      ------      ------
 O_a   :    0.000000
 H_a   :    0.957776    0.000000
 H_b   :    0.957776    1.514400    0.000000


  Max    interatomic separation is    1.5144 Angstrom (    2.8618 Bohr)
  between atoms    3 and    2, "H_b   " and "H_a   ".

  Min HX interatomic separation is    0.9578 Angstrom (    1.8099 Bohr)


  Bond distances (Angstrom):
  --------------------------

                  atom 1     atom 2       distance
                  ------     ------       --------
  bond distance:  H_a        O_a          0.957776
  bond distance:  H_b        O_a          0.957776


  Bond angles (degrees):
  ----------------------

                  atom 1     atom 2     atom 3         angle
                  ------     ------     ------         -----
  bond angle:     H_a        O_a        H_b          104.480




 Principal moments of inertia (u*A**2) and principal axes
 --------------------------------------------------------

   IA       0.615752          0.000000    1.000000    0.000000
   IB       1.155677          0.000000    0.000000    1.000000
   IC       1.771429          1.000000    0.000000    0.000000


 Rotational constants
 --------------------

@    The molecule is planar.

               A                   B                   C

         820751.0438         437301.3971         285294.6081 MHz
           27.377308           14.586804            9.516404 cm-1


@  Nuclear repulsion energy :    9.189533777587 Hartree


                     .---------------------------------------.
                     | Starting in Integral Section (HERMIT) |
                     `---------------------------------------'



 ***************************************************************************************
 ****************** Output from **INTEGRALS input processing (HERMIT) ******************
 ***************************************************************************************


 - Using defaults, no **INTEGRALS input found

 Default print level:        1

 Calculation of one-electron Hamiltonian integrals.

 Center of mass  (bohr):      0.000000000000      0.000000000000      0.097626894688
 Operator center (bohr):      0.000000000000      0.000000000000      0.000000000000
 Gauge origin    (bohr):      0.000000000000      0.000000000000      0.000000000000
 Dipole origin   (bohr):      0.000000000000      0.000000000000      0.000000000000


     ************************************************************************
     ************************** Output from HERINT **************************
     ************************************************************************



                      Nuclear contribution to dipole moments
                      --------------------------------------

                 au               Debye          C m (/(10**-30)

      x      0.00000000         0.00000000         0.00000000
      y      0.00000000         0.00000000         0.00000000
      z     -0.00000004        -0.00000010        -0.00000034


  Time used in GABGEN     is       0.28 seconds
  Total CPU  time used in HERMIT:   0.46 seconds
  Total wall time used in HERMIT:   0.46 seconds


                        .----------------------------------.
                        | End of Integral Section (HERMIT) |
                        `----------------------------------'



                   .--------------------------------------------.
                   | Starting in Wave Function Section (SIRIUS) |
                   `--------------------------------------------'


 *** Output from Huckel module :

     Using EWMO model:          T
     Using EHT  model:          F
     Number of Huckel orbitals each symmetry:    7

 EWMO - Energy Weighted Maximum Overlap - is a Huckel type method,
        which normally is better than Extended Huckel Theory.
 Reference: Linderberg and Ohrn, Propagators in Quantum Chemistry (Wiley, 1973)

 Huckel EWMO eigenvalues for symmetry :  1
          -20.684959      -1.611341      -0.778168      -0.688462      -0.616200
           -0.232449      -0.168322

 **********************************************************************
 *SIRIUS* a direct, restricted step, second order MCSCF program       *
 **********************************************************************

 
     Date and time (Linux)  : Thu Sep  7 21:33:26 2023
     Host name              : sn-mem                                  

 Title lines from ".mol" input file:
     blah                                                                    
     blah                                                                    

 Print level on unit LUPRI =   2 is   0
 Print level on unit LUW4  =   2 is   5

@    Restricted, closed shell Hartree-Fock calculation.

@    Time-dependent Hartree-Fock calculation (random phase approximation).
 Fock matrices are calculated directly and in parallel without use of integrals on disk.

 Initial molecular orbitals are obtained according to
 ".MOSTART EWMO  " input option

     Wave function specification
     ============================
@    Wave function type        --- HF ---
@    Number of closed shell electrons          10
@    Number of electrons in active shells       0
@    Total charge of the molecule               0

@    Spin multiplicity and 2 M_S                1         0
@    Total number of symmetries                 1 (point group: C1 )
@    Reference state symmetry                   1 (irrep name : A  )

     Orbital specifications
     ======================
@    Abelian symmetry species          All |    1
@                                          |  A  
                                       --- |  ---
@    Occupied SCF orbitals               5 |    5
@    Secondary orbitals                196 |  196
@    Total number of orbitals          201 |  201
@    Number of basis functions         201 |  201

     Optimization information
     ========================
@    Number of configurations                 1
@    Number of orbital rotations            980
     ------------------------------------------
@    Total number of variables              981

     Maximum number of Fock   iterations      0
     Maximum number of DIIS   iterations     60
     Maximum number of QC-SCF iterations     60
     Threshold for SCF convergence     1.00D-05


 ***********************************************
 ***** DIIS acceleration of SCF iterations *****
 ***********************************************

 C1-DIIS algorithm; max error vectors =    8

 Iter      Total energy        Error norm    Delta(E)  DIIS dim.
 -----------------------------------------------------------------------------
   1  Screening settings (-IFTHRS, JTDIIS, DIFDEN, times)   -8    1    T  2.75D+00  2.75D+00
@  1    -75.8766966527        3.15776D+00   -7.59D+01    1
      Virial theorem: -V/T =      1.997061
@    MULPOP   O_a    -1.42; H_a     0.71; H_b     0.71; 
   1  Level shift: doubly occupied orbital energies shifted by -2.00D-01
 -----------------------------------------------------------------------------
   2  Screening settings (-IFTHRS, JTDIIS, DIFDEN, times)   -8    2    T  2.71D+00  2.72D+00
@  2    -76.0548634077        4.23681D-01   -1.78D-01    2
      Virial theorem: -V/T =      2.003311
@    MULPOP   O_a    -0.65; H_a     0.33; H_b     0.33; 
   2  Level shift: doubly occupied orbital energies shifted by -5.00D-02
 -----------------------------------------------------------------------------
   3  Screening settings (-IFTHRS, JTDIIS, DIFDEN, times)   -8    3    T  2.67D+00  2.67D+00
@  3    -76.0647224045        1.11042D-01   -9.86D-03    3
      Virial theorem: -V/T =      1.999978
@    MULPOP   O_a    -0.56; H_a     0.28; H_b     0.28; 
   3  Level shift: doubly occupied orbital energies shifted by -2.50D-02
 -----------------------------------------------------------------------------
   4  Screening settings (-IFTHRS, JTDIIS, DIFDEN, times)  -12    4    F  2.74D+00  2.75D+00
@  4    -76.0658601633        5.41113D-02   -1.14D-03    4
      Virial theorem: -V/T =      2.001786
@    MULPOP   O_a    -0.54; H_a     0.27; H_b     0.27; 
   4  Level shift: doubly occupied orbital energies shifted by -1.25D-02
 -----------------------------------------------------------------------------
   5  Screening settings (-IFTHRS, JTDIIS, DIFDEN, times)  -12    5    T  2.82D+00  2.82D+00
@  5    -76.0660258131        1.22565D-02   -1.66D-04    5
      Virial theorem: -V/T =      2.000803
@    MULPOP   O_a    -0.55; H_a     0.28; H_b     0.28; 
 -----------------------------------------------------------------------------
   6  Screening settings (-IFTHRS, JTDIIS, DIFDEN, times)  -12    6    T  2.73D+00  2.74D+00
@  6    -76.0660494835        2.99965D-03   -2.37D-05    6
      Virial theorem: -V/T =      2.000936
@    MULPOP   O_a    -0.56; H_a     0.28; H_b     0.28; 
 -----------------------------------------------------------------------------
   7  Screening settings (-IFTHRS, JTDIIS, DIFDEN, times)  -12    7    T  2.75D+00  2.76D+00
@  7    -76.0660511907        5.77290D-04   -1.71D-06    7
      Virial theorem: -V/T =      2.000946
@    MULPOP   O_a    -0.56; H_a     0.28; H_b     0.28; 
 -----------------------------------------------------------------------------
   8  Screening settings (-IFTHRS, JTDIIS, DIFDEN, times)  -12    8    T  2.76D+00  2.76D+00
@  8    -76.0660512419        8.68362D-05   -5.12D-08    8
      Virial theorem: -V/T =      2.000952
@    MULPOP   O_a    -0.56; H_a     0.28; H_b     0.28; 
 -----------------------------------------------------------------------------
   9  Screening settings (-IFTHRS, JTDIIS, DIFDEN, times)  -12    9    T  2.72D+00  2.72D+00
@  9    -76.0660512429        1.58096D-05   -1.02D-09    8
      Virial theorem: -V/T =      2.000952
@    MULPOP   O_a    -0.56; H_a     0.28; H_b     0.28; 
 -----------------------------------------------------------------------------
  10  Screening settings (-IFTHRS, JTDIIS, DIFDEN, times)  -12   10    T  2.70D+00  2.70D+00
@ 10    -76.0660512429        3.21441D-06   -3.38D-11    8

@ *** DIIS converged in  10 iterations !
@     Converged SCF energy, gradient:    -76.066051242918    3.21D-06
    - total time used in SIRFCK :              0.00 seconds


 *** SCF orbital energy analysis ***

 Only the 20 lowest virtual orbital energies printed in each symmetry.

 Number of electrons :   10
 Orbital occupations :    5

 Sym       Hartree-Fock orbital energies

1 A     -20.56478998    -1.35259765    -0.71745484    -0.58498139    -0.51046917
          0.02693713     0.04308442     0.11417227     0.13327405     0.15102549
          0.15858471     0.18514031     0.19715016     0.20923447     0.23787416
          0.25711569     0.29156080     0.35818351     0.39050367     0.46990702
          0.50856840     0.54203007     0.54749908     0.55591534     0.61384350

    E(LUMO) :     0.02693713 au (symmetry 1)
  - E(HOMO) :    -0.51046917 au (symmetry 1)
  ------------------------------------------
    gap     :     0.53740630 au

 --- Writing SIRIFC interface file

 CPU and wall time for SCF :      27.809      27.856


                       .-----------------------------------.
                       | --- Final results from SIRIUS --- |
                       `-----------------------------------'


@    Spin multiplicity:           1
@    Spatial symmetry:            1 ( irrep  A   in C1  )
@    Total charge of molecule:    0

@    Final HF energy:             -76.066051242918                 
@    Nuclear repulsion:             9.189533777587
@    Electronic energy:           -85.255585020505

@    Final gradient norm:           0.000003214411

 
     Date and time (Linux)  : Thu Sep  7 21:33:53 2023
     Host name              : sn-mem                                  

File label for MO orbitals:   7Sep23   FOCKDIIS

 (Only coefficients > 0.0100 are printed.)

 Molecular orbitals for symmetry species 1  (A  )
 ------------------------------------------------

    Orbital         1        2        3        4        5        6        7
   1 O_a :1s    -1.0012   0.0016  -0.0000   0.0005  -0.0000   0.0065  -0.0000
   2 O_a :1s    -0.0066  -0.8930  -0.0000  -0.2910  -0.0000  -0.0661  -0.0000
   3 O_a :1s    -0.0001   0.0098   0.0000  -0.0034   0.0000   0.0152   0.0000
   4 O_a :1s     0.0070   0.0410   0.0000  -0.0427   0.0000  -0.1242  -0.0000
   5 O_a :1s     0.0014   0.0196   0.0000  -0.2085   0.0000  -1.5234   0.0000
   9 O_a :1s    -0.0011  -0.0285   0.0000  -0.0549  -0.0000  -3.3961   0.0000
  10 O_a :2px   -0.0000  -0.0000   0.0000  -0.0000   0.9164  -0.0000   0.0000
  11 O_a :2py   -0.0000  -0.0000  -0.7239   0.0000   0.0000  -0.0000   0.0753
  12 O_a :2pz    0.0053   0.1102  -0.0000  -0.8034  -0.0000   0.0808   0.0000
  17 O_a :2py    0.0000   0.0000   0.0177  -0.0000   0.0000   0.0000   0.1653
  18 O_a :2pz   -0.0033   0.0048  -0.0000   0.0117   0.0000   0.1252  -0.0000
  19 O_a :2px   -0.0000  -0.0000   0.0000  -0.0000   0.0219  -0.0000   0.0000
  20 O_a :2py    0.0000   0.0000   0.0445  -0.0000   0.0000   0.0000   1.0119
  21 O_a :2pz    0.0001  -0.0020  -0.0000   0.0271  -0.0000   0.5662  -0.0000
  31 O_a :2px   -0.0000  -0.0000   0.0000  -0.0000   0.0200  -0.0000   0.0000
  32 O_a :2py    0.0000   0.0000  -0.0083  -0.0000   0.0000   0.0000   1.4974
  33 O_a :2pz    0.0003   0.0031  -0.0000  -0.0098  -0.0000   0.2200  -0.0000
  50 O_a :3d1-  -0.0000  -0.0000   0.0188   0.0000  -0.0000  -0.0000  -0.0103
  55 O_a :3d1-  -0.0000  -0.0000   0.0272   0.0000  -0.0000   0.0000  -0.0800
  56 O_a :3d0   -0.0002  -0.0034   0.0000   0.0170   0.0000  -0.0035   0.0000
  57 O_a :3d1+   0.0000   0.0000  -0.0000   0.0000  -0.0113   0.0000  -0.0000
  58 O_a :3d2+  -0.0007   0.0086   0.0000  -0.0024   0.0000   0.0635   0.0000
  60 O_a :3d1-  -0.0000  -0.0000   0.0083   0.0000  -0.0000   0.0000  -0.2310
  61 O_a :3d0   -0.0002  -0.0009   0.0000   0.0040   0.0000   0.0238   0.0000
  63 O_a :3d2+   0.0002   0.0031   0.0000   0.0010   0.0000   0.0935   0.0000
  83 O_a :4f2+   0.0003  -0.0035  -0.0000   0.0035  -0.0000  -0.0107   0.0000
  85 O_a :4f3-  -0.0000  -0.0000   0.0025   0.0000  -0.0000   0.0000  -0.0180
  88 O_a :4f0    0.0000  -0.0015   0.0000  -0.0008  -0.0000  -0.0178  -0.0000
  90 O_a :4f2+   0.0000  -0.0036  -0.0000   0.0023  -0.0000  -0.0187  -0.0000
 110 H_a :1s    -0.0004  -0.3931  -0.6180   0.3697   0.0000  -0.0107   0.0341
 111 H_a :1s    -0.0008   0.0248   0.0253  -0.0131  -0.0000   0.0323  -0.0125
 112 H_a :1s     0.0003   0.1544   0.1344  -0.0272  -0.0000   0.6293  -0.7202
 113 H_a :1s     0.0007   0.1275   0.1723  -0.0664  -0.0000   1.4576  -2.3496
 114 H_a :1s     0.0000   0.0006   0.0036   0.0007   0.0000   0.8962  -3.8738
 118 H_a :2px    0.0000   0.0000  -0.0000   0.0000   0.0136   0.0000  -0.0000
 119 H_a :2py    0.0003   0.0090   0.0074  -0.0097  -0.0000  -0.0188   0.0226
 120 H_a :2pz   -0.0003  -0.0061  -0.0111  -0.0025   0.0000   0.0172  -0.0135
 121 H_a :2px    0.0000   0.0000  -0.0000   0.0000   0.0306   0.0000  -0.0000
 122 H_a :2py    0.0001   0.0082   0.0165  -0.0302   0.0000  -0.1854   0.1809
 123 H_a :2pz   -0.0006  -0.0061  -0.0231   0.0042   0.0000   0.1533  -0.2031
 124 H_a :2px    0.0000   0.0000  -0.0000   0.0000   0.0131   0.0000  -0.0000
 125 H_a :2py    0.0000  -0.0005  -0.0051  -0.0037  -0.0000  -0.3141   0.4344
 126 H_a :2pz   -0.0001   0.0005  -0.0006  -0.0034   0.0000   0.3078  -0.4837
 133 H_a :3d1-   0.0001   0.0022   0.0051  -0.0026  -0.0000  -0.0233   0.0239
 136 H_a :3d2+   0.0000   0.0016   0.0027  -0.0033  -0.0000  -0.0091   0.0169
 138 H_a :3d1-   0.0003   0.0025   0.0053  -0.0019  -0.0000  -0.0488   0.0621
 139 H_a :3d0   -0.0001  -0.0003  -0.0013  -0.0003   0.0000   0.0070  -0.0273
 141 H_a :3d2+   0.0002   0.0016   0.0014  -0.0016  -0.0000  -0.0227   0.0113
 156 H_b :1s    -0.0004  -0.3931   0.6180   0.3697   0.0000  -0.0107  -0.0341
 157 H_b :1s    -0.0008   0.0248  -0.0253  -0.0131  -0.0000   0.0323   0.0125
 158 H_b :1s     0.0003   0.1544  -0.1344  -0.0272  -0.0000   0.6293   0.7202
 159 H_b :1s     0.0007   0.1275  -0.1723  -0.0664  -0.0000   1.4576   2.3496
 160 H_b :1s     0.0000   0.0006  -0.0036   0.0007   0.0000   0.8962   3.8738
 164 H_b :2px    0.0000   0.0000  -0.0000   0.0000   0.0136   0.0000  -0.0000
 165 H_b :2py   -0.0003  -0.0090   0.0074   0.0097   0.0000   0.0188   0.0226
 166 H_b :2pz   -0.0003  -0.0061   0.0111  -0.0025   0.0000   0.0172   0.0135
 167 H_b :2px    0.0000   0.0000  -0.0000   0.0000   0.0306   0.0000  -0.0000
 168 H_b :2py   -0.0001  -0.0082   0.0165   0.0302  -0.0000   0.1854   0.1809
 169 H_b :2pz   -0.0006  -0.0061   0.0231   0.0042   0.0000   0.1533   0.2031
 170 H_b :2px    0.0000   0.0000  -0.0000   0.0000   0.0131   0.0000  -0.0000
 171 H_b :2py   -0.0000   0.0005  -0.0051   0.0037   0.0000   0.3141   0.4344
 172 H_b :2pz   -0.0001   0.0005   0.0006  -0.0034   0.0000   0.3078   0.4837
 179 H_b :3d1-  -0.0001  -0.0022   0.0051   0.0026   0.0000   0.0233   0.0239
 182 H_b :3d2+   0.0000   0.0016  -0.0027  -0.0033  -0.0000  -0.0091  -0.0169
 184 H_b :3d1-  -0.0003  -0.0025   0.0053   0.0019   0.0000   0.0488   0.0621
 185 H_b :3d0   -0.0001  -0.0003   0.0013  -0.0003   0.0000   0.0070   0.0273
 187 H_b :3d2+   0.0002   0.0016  -0.0014  -0.0016  -0.0000  -0.0227  -0.0113

    Orbital         8        9       10       11       12       13       14
   1 O_a :1s    -0.0121   0.0000   0.0373  -0.0000   0.0000   0.0009   0.0000
   2 O_a :1s    -0.0028   0.0000   0.3655  -0.0000  -0.0000   0.0012   0.0000
   3 O_a :1s     0.0070  -0.0000   0.0569   0.0000  -0.0000  -0.0154  -0.0000
   4 O_a :1s    -0.0160  -0.0000  -0.6585  -0.0000   0.0000   0.4090  -0.0000
   5 O_a :1s    -2.9942  -0.0000  -3.3966   0.0000   0.0000  -1.1615   0.0000
   6 O_a :1s    -0.0051   0.0000   0.0133  -0.0000   0.0000   0.0003   0.0000
   9 O_a :1s    -9.3954   0.0000  -5.9878   0.0000   0.0000  -3.4015   0.0000
  10 O_a :2px    0.0000  -0.1665   0.0000  -0.0000  -0.0000  -0.0000   0.0000
  11 O_a :2py   -0.0000  -0.0000  -0.0000  -0.1748  -0.1536   0.0000  -0.0000
  12 O_a :2pz   -0.1733   0.0000  -0.0569   0.0000   0.0000  -0.0154   0.0000
  13 O_a :2px   -0.0000  -0.0103  -0.0000   0.0000   0.0000   0.0000  -0.0000
  14 O_a :2py    0.0000   0.0000   0.0000  -0.0292   0.0493  -0.0000   0.0000
  15 O_a :2pz   -0.0111   0.0000  -0.0053  -0.0000  -0.0000   0.0080   0.0000
  16 O_a :2px    0.0000  -0.0183   0.0000  -0.0000  -0.0000  -0.0000  -0.0000
  17 O_a :2py    0.0000  -0.0000   0.0000   0.4525   0.1543  -0.0000   0.0000
  18 O_a :2pz    0.1122  -0.0000   0.3326  -0.0000  -0.0000  -0.2532  -0.0000
  19 O_a :2px    0.0000   0.2959   0.0000  -0.0000  -0.0000  -0.0000  -0.0000
  20 O_a :2py   -0.0000  -0.0000  -0.0000   3.1074  -1.6695  -0.0000   0.0000
  21 O_a :2pz    0.9568   0.0000   0.5408  -0.0000  -0.0000  -1.0654  -0.0000
  31 O_a :2px    0.0000   2.1778   0.0000  -0.0000  -0.0000  -0.0000   0.0000
  32 O_a :2py    0.0000  -0.0000   0.0000   4.4475  -2.1179  -0.0000   0.0000
  33 O_a :2pz    2.3498   0.0000  -1.1485  -0.0000  -0.0000  -0.9530  -0.0000
  50 O_a :3d1-  -0.0000   0.0000  -0.0000  -0.0203  -0.0332   0.0000   0.0000
  53 O_a :3d2+   0.0046  -0.0000   0.0199  -0.0000  -0.0000  -0.0150  -0.0000
  54 O_a :3d2-   0.0000   0.0000  -0.0000  -0.0000   0.0000   0.0000   0.4821
  55 O_a :3d1-   0.0000   0.0000   0.0000  -0.2554   0.2910   0.0000   0.0000
  56 O_a :3d0    0.0419  -0.0000   0.0180   0.0000   0.0000   0.4376   0.0000
  57 O_a :3d1+  -0.0000   0.0385  -0.0000   0.0000   0.0000   0.0000   0.0000
  58 O_a :3d2+   0.0626  -0.0000   0.1251   0.0000   0.0000   0.3919  -0.0000
  59 O_a :3d2-   0.0000   0.0000  -0.0000  -0.0000  -0.0000   0.0000   1.2202
  60 O_a :3d1-   0.0000   0.0000   0.0000  -0.8050   1.3674  -0.0000   0.0000
  61 O_a :3d0   -0.1543  -0.0000   0.3077   0.0000   0.0000   0.9928  -0.0000
  62 O_a :3d1+  -0.0000  -0.3783  -0.0000   0.0000   0.0000   0.0000  -0.0000
  63 O_a :3d2+   0.1778  -0.0000   0.0305   0.0000   0.0000   0.9760   0.0000
  78 O_a :4f3-  -0.0000   0.0000  -0.0000  -0.0106   0.0097   0.0000  -0.0000
  79 O_a :4f2-  -0.0000   0.0000  -0.0000   0.0000  -0.0000   0.0000  -0.0711
  80 O_a :4f1-  -0.0000  -0.0000  -0.0000   0.0116  -0.0309  -0.0000  -0.0000
  81 O_a :4f0   -0.0065   0.0000  -0.0127   0.0000  -0.0000  -0.0546   0.0000
  83 O_a :4f2+   0.0014   0.0000  -0.0219   0.0000   0.0000  -0.0335   0.0000
  84 O_a :4f3+  -0.0000   0.0198  -0.0000   0.0000   0.0000   0.0000   0.0000
  85 O_a :4f3-   0.0000   0.0000   0.0000  -0.0519   0.0377   0.0000  -0.0000
  86 O_a :4f2-  -0.0000  -0.0000   0.0000   0.0000  -0.0000  -0.0000  -0.2549
  87 O_a :4f1-  -0.0000   0.0000  -0.0000   0.0094  -0.1816   0.0000  -0.0000
  88 O_a :4f0    0.0227   0.0000  -0.0662  -0.0000  -0.0000  -0.1726   0.0000
  89 O_a :4f1+   0.0000   0.0412   0.0000  -0.0000  -0.0000  -0.0000   0.0000
  90 O_a :4f2+   0.0126   0.0000  -0.0180  -0.0000  -0.0000  -0.1239   0.0000
 101 O_a :5g4-  -0.0000   0.0000   0.0000   0.0000   0.0000  -0.0000  -0.0302
 102 O_a :5g3-  -0.0000  -0.0000  -0.0000   0.0038  -0.0200   0.0000  -0.0000
 103 O_a :5g2-   0.0000  -0.0000  -0.0000  -0.0000   0.0000   0.0000   0.0322
 104 O_a :5g1-   0.0000  -0.0000   0.0000   0.0010   0.0109  -0.0000   0.0000
 105 O_a :5g0   -0.0058  -0.0000   0.0087  -0.0000  -0.0000   0.0135  -0.0000
 109 O_a :5g4+  -0.0014   0.0000   0.0044  -0.0000  -0.0000  -0.0195   0.0000
 110 H_a :1s    -0.0122  -0.0000  -0.1369   0.0270   0.0486   0.0253  -0.0000
 111 H_a :1s    -0.0151   0.0000   0.0487  -0.0596   0.1985   0.1546  -0.0000
 112 H_a :1s     0.8769   0.0000   1.0980  -2.1500   1.0796   0.7822  -0.0000
 113 H_a :1s     4.7519   0.0000   2.2764  -7.2312  -0.8827   1.7362  -0.0000
 114 H_a :1s     0.7452  -0.0000   0.8509  -4.0380  -0.1003   0.0640  -0.0000
 118 H_a :2px   -0.0000   0.0309  -0.0000   0.0000   0.0000   0.0000  -0.0684
 119 H_a :2py    0.0105   0.0000  -0.0613   0.0786  -0.0693   0.0178  -0.0000
 120 H_a :2pz    0.0076  -0.0000   0.0516  -0.0478   0.0059   0.0629  -0.0000
 121 H_a :2px   -0.0000  -0.0828  -0.0000   0.0000   0.0000   0.0000  -1.0006
 122 H_a :2py   -0.4476  -0.0000  -0.4498   0.5045   0.3241   0.5059   0.0000
 123 H_a :2pz    0.3349  -0.0000   0.4876  -0.5770  -0.3979   0.7152  -0.0000
 124 H_a :2px   -0.0000  -0.8091  -0.0000   0.0000   0.0000   0.0000  -2.5036
 125 H_a :2py   -0.9664   0.0000  -1.2181   1.3471   2.0154   1.3191   0.0000
 126 H_a :2pz    0.6275  -0.0000   1.4230  -1.5263  -1.2809   1.4262  -0.0000
 132 H_a :3d2-   0.0000  -0.0134   0.0000  -0.0000  -0.0000  -0.0000   0.1303
 133 H_a :3d1-  -0.0337   0.0000  -0.0831   0.0609   0.0670  -0.0223   0.0000
 134 H_a :3d0    0.0205  -0.0000   0.0037  -0.0141  -0.0266   0.1127  -0.0000
 135 H_a :3d1+  -0.0000   0.0224  -0.0000   0.0000   0.0000   0.0000  -0.0991
 136 H_a :3d2+  -0.0167   0.0000  -0.0275   0.0420   0.0322   0.0983   0.0000
 137 H_a :3d2-   0.0000   0.1204   0.0000  -0.0000  -0.0000  -0.0000   0.5274
 138 H_a :3d1-  -0.1182   0.0000  -0.2800   0.1392   0.4135   0.0040   0.0000
 139 H_a :3d0    0.0294  -0.0000   0.0205  -0.0743  -0.1276   0.4588  -0.0000
 140 H_a :3d1+  -0.0000  -0.0344  -0.0000   0.0000   0.0000   0.0000  -0.4444
 141 H_a :3d2+  -0.0652   0.0000  -0.1485  -0.0240   0.3705   0.3285   0.0000
 143 H_a :4f2-   0.0000  -0.0027   0.0000  -0.0000  -0.0000  -0.0000   0.0114
 149 H_a :4f3-  -0.0049  -0.0000   0.0117  -0.0010  -0.0427  -0.0390  -0.0000
 150 H_a :4f2-   0.0000  -0.0033   0.0000  -0.0000  -0.0000  -0.0000   0.0770
 151 H_a :4f1-  -0.0134   0.0000  -0.0139   0.0062   0.0326  -0.0473   0.0000
 152 H_a :4f0    0.0106   0.0000  -0.0319   0.0009   0.0069   0.0438   0.0000
 153 H_a :4f1+  -0.0000   0.0159  -0.0000   0.0000   0.0000   0.0000  -0.0221
 154 H_a :4f2+  -0.0074   0.0000  -0.0272   0.0020   0.0534   0.0332   0.0000
 155 H_a :4f3+   0.0000   0.0061   0.0000  -0.0000  -0.0000  -0.0000   0.0537
 156 H_b :1s    -0.0122  -0.0000  -0.1369  -0.0270  -0.0486   0.0253   0.0000
 157 H_b :1s    -0.0151   0.0000   0.0487   0.0596  -0.1985   0.1546  -0.0000
 158 H_b :1s     0.8769   0.0000   1.0980   2.1500  -1.0796   0.7822  -0.0000
 159 H_b :1s     4.7519   0.0000   2.2764   7.2312   0.8827   1.7362  -0.0000
 160 H_b :1s     0.7452  -0.0000   0.8509   4.0380   0.1003   0.0640   0.0000
 164 H_b :2px   -0.0000   0.0309  -0.0000   0.0000   0.0000   0.0000   0.0684
 165 H_b :2py   -0.0105  -0.0000   0.0613   0.0786  -0.0693  -0.0178   0.0000
 166 H_b :2pz    0.0076  -0.0000   0.0516   0.0478  -0.0059   0.0629  -0.0000
 167 H_b :2px   -0.0000  -0.0828  -0.0000   0.0000   0.0000   0.0000   1.0006
 168 H_b :2py    0.4476   0.0000   0.4498   0.5045   0.3241  -0.5059  -0.0000
 169 H_b :2pz    0.3349  -0.0000   0.4876   0.5770   0.3979   0.7152  -0.0000
 170 H_b :2px   -0.0000  -0.8091  -0.0000   0.0000   0.0000   0.0000   2.5036
 171 H_b :2py    0.9664  -0.0000   1.2181   1.3471   2.0154  -1.3191  -0.0000
 172 H_b :2pz    0.6275  -0.0000   1.4230   1.5263   1.2809   1.4262  -0.0000
 178 H_b :3d2-  -0.0000   0.0134  -0.0000   0.0000   0.0000   0.0000   0.1303
 179 H_b :3d1-   0.0337  -0.0000   0.0831   0.0609   0.0670   0.0223  -0.0000
 180 H_b :3d0    0.0205  -0.0000   0.0037   0.0141   0.0266   0.1127  -0.0000
 181 H_b :3d1+  -0.0000   0.0224  -0.0000   0.0000   0.0000   0.0000   0.0991
 182 H_b :3d2+  -0.0167   0.0000  -0.0275  -0.0420  -0.0322   0.0983   0.0000
 183 H_b :3d2-  -0.0000  -0.1204  -0.0000   0.0000   0.0000   0.0000   0.5274
 184 H_b :3d1-   0.1182  -0.0000   0.2800   0.1392   0.4135  -0.0040  -0.0000
 185 H_b :3d0    0.0294  -0.0000   0.0205   0.0743   0.1276   0.4588   0.0000
 186 H_b :3d1+  -0.0000  -0.0344  -0.0000   0.0000   0.0000   0.0000   0.4444
 187 H_b :3d2+  -0.0652   0.0000  -0.1485   0.0240  -0.3705   0.3285   0.0000
 189 H_b :4f2-  -0.0000   0.0027  -0.0000   0.0000   0.0000   0.0000   0.0114
 195 H_b :4f3-   0.0049   0.0000  -0.0117  -0.0010  -0.0427   0.0390   0.0000
 196 H_b :4f2-  -0.0000   0.0033  -0.0000   0.0000   0.0000   0.0000   0.0770
 197 H_b :4f1-   0.0134  -0.0000   0.0139   0.0062   0.0326   0.0473  -0.0000
 198 H_b :4f0    0.0106   0.0000  -0.0319  -0.0009  -0.0069   0.0438   0.0000
 199 H_b :4f1+  -0.0000   0.0159  -0.0000   0.0000   0.0000   0.0000   0.0221
 200 H_b :4f2+  -0.0074   0.0000  -0.0272  -0.0020  -0.0534   0.0332   0.0000
 201 H_b :4f3+   0.0000   0.0061   0.0000  -0.0000  -0.0000  -0.0000  -0.0537

    Orbital        15
  10 O_a :2px   -0.2172
  13 O_a :2px    0.0719
  16 O_a :2px   -0.4475
  19 O_a :2px   -3.5960
  31 O_a :2px   -2.6420
  57 O_a :3d1+   0.4081
  62 O_a :3d1+   0.9162
  82 O_a :4f1+  -0.0204
  84 O_a :4f3+   0.0647
  89 O_a :4f1+  -0.0835
  91 O_a :4f3+   0.1968
 108 O_a :5g3+  -0.0531
 118 H_a :2px    0.0708
 121 H_a :2px    1.0292
 124 H_a :2px    2.6092
 132 H_a :3d2-  -0.1375
 135 H_a :3d1+   0.1069
 137 H_a :3d2-  -0.5774
 140 H_a :3d1+   0.4054
 143 H_a :4f2-  -0.0135
 148 H_a :4f3+  -0.0112
 150 H_a :4f2-  -0.0749
 153 H_a :4f1+   0.0204
 155 H_a :4f3+  -0.0609
 164 H_b :2px    0.0708
 167 H_b :2px    1.0292
 170 H_b :2px    2.6092
 178 H_b :3d2-   0.1375
 181 H_b :3d1+   0.1069
 183 H_b :3d2-   0.5774
 186 H_b :3d1+   0.4054
 189 H_b :4f2-   0.0135
 194 H_b :4f3+  -0.0112
 196 H_b :4f2-   0.0749
 199 H_b :4f1+   0.0204
 201 H_b :4f3+  -0.0609

  Total CPU  time used in SIRIUS :  28.19 seconds
  Total wall time used in SIRIUS :  28.24 seconds

 
     Date and time (Linux)  : Thu Sep  7 21:33:53 2023
     Host name              : sn-mem                                  


                     .---------------------------------------.
                     | End of Wave Function Section (SIRIUS) |
                     `---------------------------------------'



                 .------------------------------------------------.
                 | Starting in Dynamic Property Section (RESPONS) |
                 `------------------------------------------------'


 ----------------------------------------------------------------------------------------
  RESPONSE  -  an MCSCF, MC-srDFT, DFT, SOPPA and SOPPA-srDFT response property program
 ----------------------------------------------------------------------------------------


 -------- OUTPUT FROM RESPONSE INPUT PROCESSING --------




 Quadratic Response calculation
 ------------------------------

 First hyperpolarizability calculation : HYPCAL= T

 Spin of operator A , ISPINA=    0
 Spin of operator B , ISPINB=    0
 Spin of operator C , ISPINC=    0

  5 B-frequencies  0.000000D+00  1.986669D-02  3.973338D-02  5.960006D-02  7.946675D-02
  5 C-frequencies  0.000000D+00  1.986669D-02  3.973338D-02  5.960006D-02  7.946675D-02


 Print level                                    : IPRHYP =   2
 Maximum number of iterations in lin.rsp. solver: MAXITL =  60
 Threshold for convergence of linear resp. eq.s : THCLR  = 1.000D-03
 Maximum iterations in optimal orbital algorithm: MAXITO =   5
 Direct one-index transformation                : DIROIT = T

    3 A OPERATORS OF SYMMETRY NO:    1 AND LABELS:

          XDIPLEN 
          YDIPLEN 
          ZDIPLEN 

    3 B OPERATORS OF SYMMETRY NO:    1 AND LABELS:

          XDIPLEN 
          YDIPLEN 
          ZDIPLEN 

    3 C OPERATORS OF SYMMETRY NO:    1 AND LABELS:

          XDIPLEN 
          YDIPLEN 
          ZDIPLEN 


   SCF energy         :      -76.066051242917837
 -- inactive part     :      -85.255585020504682
 -- nuclear repulsion :        9.189533777586849


                     ***************************************
                     *** RHF response calculation (TDHF) ***
                     ***************************************



 Linear response calculations for quadratic response
 - singlet property operator of symmetry    1  ( A  )


 Perturbation symmetry.     KSYMOP:           1
 Perturbation spin symmetry.TRPLET:           F
 Orbital variables.         KZWOPT:         980
 Configuration variables.   KZCONF:           0
 Total number of variables. KZVAR :         980


 QRLRVE -- linear response calculation for symmetry  1  ( A  )
 QRLRVE -- operator label : XDIPLEN 
 QRLRVE -- operator spin  :   0
 QRLRVE -- frequencies :  0.000000  0.019867  0.039733  0.059600  0.079467
                          0.099333  0.119200  0.139067  0.158934



 ---  SOLVING SETS OF LINEAR EQUATIONS FOR LINEAR RESPONSE PROPERTIES ---

 Operator symmetry = 1  ( A  ); triplet =   F


 ** RSPCTL MICROITERATION NUMBER    1

       No.  Residual tot.,    conf., and orb.    Bnorm      Frequency 
      ----------------------------------------------------------------
         1    6.99867D-01  0.00D+00  7.00D-01  2.35D+00    0.00000D+00
         2    7.00779D-01  0.00D+00  7.01D-01  2.35D+00    1.98667D-02
         3    7.03552D-01  0.00D+00  7.04D-01  2.37D+00    3.97334D-02
         4    7.08302D-01  0.00D+00  7.08D-01  2.40D+00    5.96001D-02
         5    7.15239D-01  0.00D+00  7.15D-01  2.45D+00    7.94668D-02
         6    7.24694D-01  0.00D+00  7.25D-01  2.52D+00    9.93334D-02
         7    7.37160D-01  0.00D+00  7.37D-01  2.60D+00    1.19200D-01
         8    7.53373D-01  0.00D+00  7.53D-01  2.71D+00    1.39067D-01
         9    7.74440D-01  0.00D+00  7.74D-01  2.85D+00    1.58934D-01

 ** RSPCTL MICROITERATION NUMBER    2

       No.  Residual tot.,    conf., and orb.    Bnorm      Frequency 
      ----------------------------------------------------------------
         1    6.80423D-02  0.00D+00  6.80D-02  2.43D+00    0.00000D+00
         2    6.82157D-02  0.00D+00  6.82D-02  2.43D+00    1.98667D-02
         3    6.87493D-02  0.00D+00  6.87D-02  2.46D+00    3.97334D-02
         4    6.96850D-02  0.00D+00  6.97D-02  2.50D+00    5.96001D-02
         5    7.11008D-02  0.00D+00  7.11D-02  2.55D+00    7.94668D-02
         6    7.31249D-02  0.00D+00  7.31D-02  2.63D+00    9.93334D-02
         7    7.59608D-02  0.00D+00  7.60D-02  2.74D+00    1.19200D-01
         8    7.99322D-02  0.00D+00  7.99D-02  2.87D+00    1.39067D-01
         9    8.55629D-02  0.00D+00  8.56D-02  3.05D+00    1.58934D-01

 ** RSPCTL MICROITERATION NUMBER    3

       No.  Residual tot.,    conf., and orb.    Bnorm      Frequency 
      ----------------------------------------------------------------
         1    3.81036D-03  0.00D+00  3.81D-03  2.43D+00    0.00000D+00
         2    3.87362D-03  0.00D+00  3.87D-03  2.44D+00    1.98667D-02
         3    4.06405D-03  0.00D+00  4.06D-03  2.46D+00    3.97334D-02
         4    4.38459D-03  0.00D+00  4.38D-03  2.50D+00    5.96001D-02
         5    4.84318D-03  0.00D+00  4.84D-03  2.56D+00    7.94668D-02
         6    5.45645D-03  0.00D+00  5.46D-03  2.63D+00    9.93334D-02
         7    6.25471D-03  0.00D+00  6.25D-03  2.74D+00    1.19200D-01
         8    7.28932D-03  0.00D+00  7.29D-03  2.88D+00    1.39067D-01
         9    8.64530D-03  0.00D+00  8.65D-03  3.06D+00    1.58934D-01

 ** RSPCTL MICROITERATION NUMBER    4

       No.  Residual tot.,    conf., and orb.    Bnorm      Frequency 
      ----------------------------------------------------------------
         1    4.11406D-04  0.00D+00  4.11D-04  2.43D+00    0.00000D+00
         2    4.42508D-04  0.00D+00  4.43D-04  2.44D+00    1.98667D-02
         3    5.27996D-04  0.00D+00  5.28D-04  2.46D+00    3.97334D-02
         4    6.54751D-04  0.00D+00  6.55D-04  2.50D+00    5.96001D-02
         5    8.15834D-04  0.00D+00  8.16D-04  2.56D+00    7.94668D-02
         6    1.01166D-03  0.00D+00  1.01D-03  2.63D+00    9.93334D-02
         7    1.24856D-03  0.00D+00  1.25D-03  2.74D+00    1.19200D-01
         8    1.53861D-03  0.00D+00  1.54D-03  2.88D+00    1.39067D-01
         9    1.90139D-03  0.00D+00  1.90D-03  3.06D+00    1.58934D-01

 *** THE REQUESTED    9 SOLUTION VECTORS CONVERGED

 Convergence of RSP solution vectors, threshold = 1.00D-03
 ---------------------------------------------------------------
 (dimension of paired reduced space:   72)
 RSP solution vector no.    1; norm of residual   1.69D-04
 RSP solution vector no.    2; norm of residual   1.82D-04
 RSP solution vector no.    3; norm of residual   2.15D-04
 RSP solution vector no.    4; norm of residual   2.62D-04
 RSP solution vector no.    5; norm of residual   3.19D-04
 RSP solution vector no.    6; norm of residual   3.84D-04
 RSP solution vector no.    7; norm of residual   4.56D-04
 RSP solution vector no.    8; norm of residual   5.35D-04
 RSP solution vector no.    9; norm of residual   6.22D-04

 *** RSPCTL MICROITERATIONS CONVERGED

@ QRLRVE: SINGLET SOLUTION FOR SYMMETRY    1  ( A  )    LABEL   XDIPLEN     FREQUENCY   0.000000D+00

@ QRLRVE:  << XDIPLEN  ; XDIPLEN  >> (   0.00000):     7.84831187909    

@ QRLRVE:  << YDIPLEN  ; XDIPLEN  >> (   0.00000):    4.720801189064E-16

@ QRLRVE:  << ZDIPLEN  ; XDIPLEN  >> (   0.00000):   -4.902005772156E-16

@ QRLRVE: SINGLET SOLUTION FOR SYMMETRY    1  ( A  )    LABEL   XDIPLEN     FREQUENCY   0.198667D-01

@ QRLRVE:  << XDIPLEN  ; XDIPLEN  >> (   0.01987):     7.85850447297    

@ QRLRVE:  << YDIPLEN  ; XDIPLEN  >> (   0.01987):    4.741004728977E-16

@ QRLRVE:  << ZDIPLEN  ; XDIPLEN  >> (   0.01987):   -4.902900681049E-16

@ QRLRVE: SINGLET SOLUTION FOR SYMMETRY    1  ( A  )    LABEL   XDIPLEN     FREQUENCY   0.397334D-01

@ QRLRVE:  << XDIPLEN  ; XDIPLEN  >> (   0.03973):     7.88940015306    

@ QRLRVE:  << YDIPLEN  ; XDIPLEN  >> (   0.03973):    4.802601035907E-16

@ QRLRVE:  << ZDIPLEN  ; XDIPLEN  >> (   0.03973):   -4.905663326021E-16

@ QRLRVE: SINGLET SOLUTION FOR SYMMETRY    1  ( A  )    LABEL   XDIPLEN     FREQUENCY   0.596001D-01

@ QRLRVE:  << XDIPLEN  ; XDIPLEN  >> (   0.05960):     7.94198619690    

@ QRLRVE:  << YDIPLEN  ; XDIPLEN  >> (   0.05960):    4.908667993480E-16

@ QRLRVE:  << ZDIPLEN  ; XDIPLEN  >> (   0.05960):   -4.910574577785E-16

@ QRLRVE: SINGLET SOLUTION FOR SYMMETRY    1  ( A  )    LABEL   XDIPLEN     FREQUENCY   0.794668D-01

@ QRLRVE:  << XDIPLEN  ; XDIPLEN  >> (   0.07947):     8.01802749103    

@ QRLRVE:  << YDIPLEN  ; XDIPLEN  >> (   0.07947):    5.064766443696E-16

@ QRLRVE:  << ZDIPLEN  ; XDIPLEN  >> (   0.07947):   -4.918277105733E-16

@ QRLRVE: SINGLET SOLUTION FOR SYMMETRY    1  ( A  )    LABEL   XDIPLEN     FREQUENCY   0.993334D-01

@ QRLRVE:  << XDIPLEN  ; XDIPLEN  >> (   0.09933):     8.12027472769    

@ QRLRVE:  << YDIPLEN  ; XDIPLEN  >> (   0.09933):    5.279696818008E-16

@ QRLRVE:  << ZDIPLEN  ; XDIPLEN  >> (   0.09933):   -4.930106460614E-16

@ QRLRVE: SINGLET SOLUTION FOR SYMMETRY    1  ( A  )    LABEL   XDIPLEN     FREQUENCY   0.119200D+00

@ QRLRVE:  << XDIPLEN  ; XDIPLEN  >> (   0.11920):     8.25282604137    

@ QRLRVE:  << YDIPLEN  ; XDIPLEN  >> (   0.11920):    5.566824955863E-16

@ QRLRVE:  << ZDIPLEN  ; XDIPLEN  >> (   0.11920):   -4.948726958235E-16

@ QRLRVE: SINGLET SOLUTION FOR SYMMETRY    1  ( A  )    LABEL   XDIPLEN     FREQUENCY   0.139067D+00

@ QRLRVE:  << XDIPLEN  ; XDIPLEN  >> (   0.13907):     8.42174811358    

@ QRLRVE:  << YDIPLEN  ; XDIPLEN  >> (   0.13907):    5.946382010043E-16

@ QRLRVE:  << ZDIPLEN  ; XDIPLEN  >> (   0.13907):   -4.979346565550E-16

@ QRLRVE: SINGLET SOLUTION FOR SYMMETRY    1  ( A  )    LABEL   XDIPLEN     FREQUENCY   0.158934D+00

@ QRLRVE:  << XDIPLEN  ; XDIPLEN  >> (   0.15893):     8.63617174981    

@ QRLRVE:  << YDIPLEN  ; XDIPLEN  >> (   0.15893):    6.449563149080E-16

@ QRLRVE:  << ZDIPLEN  ; XDIPLEN  >> (   0.15893):   -5.032089379929E-16


 QRLRVE -- linear response calculation for symmetry  1  ( A  )
 QRLRVE -- operator label : YDIPLEN 
 QRLRVE -- operator spin  :   0
 QRLRVE -- frequencies :  0.000000  0.019867  0.039733  0.059600  0.079467
                          0.099333  0.119200  0.139067  0.158934



 ---  SOLVING SETS OF LINEAR EQUATIONS FOR LINEAR RESPONSE PROPERTIES ---

 Operator symmetry = 1  ( A  ); triplet =   F

RSPORT:    1 out of    9 new trial vectors linear dependent

 ** RSPCTL MICROITERATION NUMBER    1

       No.  Residual tot.,    conf., and orb.    Bnorm      Frequency 
      ----------------------------------------------------------------
         1    8.82785D-01  0.00D+00  8.83D-01  2.34D+00    0.00000D+00
         2    8.83455D-01  0.00D+00  8.83D-01  2.35D+00    1.98667D-02
         3    8.85475D-01  0.00D+00  8.85D-01  2.36D+00    3.97334D-02
         4    8.88872D-01  0.00D+00  8.89D-01  2.38D+00    5.96001D-02
         5    8.93692D-01  0.00D+00  8.94D-01  2.41D+00    7.94668D-02
         6    9.00001D-01  0.00D+00  9.00D-01  2.44D+00    9.93334D-02
         7    9.07891D-01  0.00D+00  9.08D-01  2.49D+00    1.19200D-01
         8    9.17479D-01  0.00D+00  9.17D-01  2.54D+00    1.39067D-01
         9    9.28915D-01  0.00D+00  9.29D-01  2.61D+00    1.58934D-01

 ** RSPCTL MICROITERATION NUMBER    2

       No.  Residual tot.,    conf., and orb.    Bnorm      Frequency 
      ----------------------------------------------------------------
         1    8.76011D-02  0.00D+00  8.76D-02  2.43D+00    0.00000D+00
         2    8.77806D-02  0.00D+00  8.78D-02  2.43D+00    1.98667D-02
         3    8.83234D-02  0.00D+00  8.83D-02  2.44D+00    3.97334D-02
         4    8.92425D-02  0.00D+00  8.92D-02  2.47D+00    5.96001D-02
         5    9.05600D-02  0.00D+00  9.06D-02  2.50D+00    7.94668D-02
         6    9.23088D-02  0.00D+00  9.23D-02  2.54D+00    9.93334D-02
         7    9.45338D-02  0.00D+00  9.45D-02  2.59D+00    1.19200D-01
         8    9.72948D-02  0.00D+00  9.73D-02  2.65D+00    1.39067D-01
         9    1.00670D-01  0.00D+00  1.01D-01  2.72D+00    1.58934D-01

 ** RSPCTL MICROITERATION NUMBER    3

       No.  Residual tot.,    conf., and orb.    Bnorm      Frequency 
      ----------------------------------------------------------------
         1    1.18130D-02  0.00D+00  1.18D-02  2.43D+00    0.00000D+00
         2    1.18852D-02  0.00D+00  1.19D-02  2.43D+00    1.98667D-02
         3    1.21025D-02  0.00D+00  1.21D-02  2.45D+00    3.97334D-02
         4    1.24676D-02  0.00D+00  1.25D-02  2.47D+00    5.96001D-02
         5    1.29851D-02  0.00D+00  1.30D-02  2.50D+00    7.94668D-02
         6    1.36622D-02  0.00D+00  1.37D-02  2.54D+00    9.93334D-02
         7    1.45095D-02  0.00D+00  1.45D-02  2.59D+00    1.19200D-01
         8    1.55418D-02  0.00D+00  1.55D-02  2.65D+00    1.39067D-01
         9    1.67791D-02  0.00D+00  1.68D-02  2.72D+00    1.58934D-01

 ** RSPCTL MICROITERATION NUMBER    4

       No.  Residual tot.,    conf., and orb.    Bnorm      Frequency 
      ----------------------------------------------------------------
         1    1.94949D-03  0.00D+00  1.95D-03  2.43D+00    0.00000D+00
         2    1.96406D-03  0.00D+00  1.96D-03  2.43D+00    1.98667D-02
         3    2.00796D-03  0.00D+00  2.01D-03  2.45D+00    3.97334D-02
         4    2.08184D-03  0.00D+00  2.08D-03  2.47D+00    5.96001D-02
         5    2.18689D-03  0.00D+00  2.19D-03  2.50D+00    7.94668D-02
         6    2.32497D-03  0.00D+00  2.32D-03  2.54D+00    9.93334D-02
         7    2.49885D-03  0.00D+00  2.50D-03  2.59D+00    1.19200D-01
         8    2.71239D-03  0.00D+00  2.71D-03  2.65D+00    1.39067D-01
         9    2.97090D-03  0.00D+00  2.97D-03  2.72D+00    1.58934D-01

 ** RSPCTL MICROITERATION NUMBER    5

       No.  Residual tot.,    conf., and orb.    Bnorm      Frequency 
      ----------------------------------------------------------------
         1    3.41510D-04  0.00D+00  3.42D-04  2.43D+00    0.00000D+00
         2    3.43445D-04  0.00D+00  3.43D-04  2.43D+00    1.98667D-02
         3    3.49283D-04  0.00D+00  3.49D-04  2.45D+00    3.97334D-02
         4    3.59136D-04  0.00D+00  3.59D-04  2.47D+00    5.96001D-02
         5    3.73200D-04  0.00D+00  3.73D-04  2.50D+00    7.94668D-02
         6    3.91771D-04  0.00D+00  3.92D-04  2.54D+00    9.93334D-02
         7    4.15274D-04  0.00D+00  4.15D-04  2.59D+00    1.19200D-01
         8    4.44305D-04  0.00D+00  4.44D-04  2.65D+00    1.39067D-01
         9    4.79689D-04  0.00D+00  4.80D-04  2.72D+00    1.58934D-01

 *** THE REQUESTED    9 SOLUTION VECTORS CONVERGED

 Convergence of RSP solution vectors, threshold = 1.00D-03
 ---------------------------------------------------------------
 (dimension of paired reduced space:   74)
 RSP solution vector no.    1; norm of residual   1.41D-04
 RSP solution vector no.    2; norm of residual   1.41D-04
 RSP solution vector no.    3; norm of residual   1.43D-04
 RSP solution vector no.    4; norm of residual   1.46D-04
 RSP solution vector no.    5; norm of residual   1.49D-04
 RSP solution vector no.    6; norm of residual   1.54D-04
 RSP solution vector no.    7; norm of residual   1.61D-04
 RSP solution vector no.    8; norm of residual   1.68D-04
 RSP solution vector no.    9; norm of residual   1.76D-04

 *** RSPCTL MICROITERATIONS CONVERGED

@ QRLRVE: SINGLET SOLUTION FOR SYMMETRY    1  ( A  )    LABEL   YDIPLEN     FREQUENCY   0.000000D+00

@ QRLRVE:  << XDIPLEN  ; YDIPLEN  >> (   0.00000):    1.565266421866E-14

@ QRLRVE:  << YDIPLEN  ; YDIPLEN  >> (   0.00000):     9.18927705580    

@ QRLRVE:  << ZDIPLEN  ; YDIPLEN  >> (   0.00000):    7.920667342960E-05

@ QRLRVE: SINGLET SOLUTION FOR SYMMETRY    1  ( A  )    LABEL   YDIPLEN     FREQUENCY   0.198667D-01

@ QRLRVE:  << XDIPLEN  ; YDIPLEN  >> (   0.01987):    1.576118255599E-14

@ QRLRVE:  << YDIPLEN  ; YDIPLEN  >> (   0.01987):     9.19758004517    

@ QRLRVE:  << ZDIPLEN  ; YDIPLEN  >> (   0.01987):    7.939285082034E-05

@ QRLRVE: SINGLET SOLUTION FOR SYMMETRY    1  ( A  )    LABEL   YDIPLEN     FREQUENCY   0.397334D-01

@ QRLRVE:  << XDIPLEN  ; YDIPLEN  >> (   0.03973):    1.609063779724E-14

@ QRLRVE:  << YDIPLEN  ; YDIPLEN  >> (   0.03973):     9.22260576463    

@ QRLRVE:  << ZDIPLEN  ; YDIPLEN  >> (   0.03973):    7.994221066056E-05

@ QRLRVE: SINGLET SOLUTION FOR SYMMETRY    1  ( A  )    LABEL   YDIPLEN     FREQUENCY   0.596001D-01

@ QRLRVE:  << XDIPLEN  ; YDIPLEN  >> (   0.05960):    1.665297593123E-14

@ QRLRVE:  << YDIPLEN  ; YDIPLEN  >> (   0.05960):     9.26470913374    

@ QRLRVE:  << ZDIPLEN  ; YDIPLEN  >> (   0.05960):    8.082484470552E-05

@ QRLRVE: SINGLET SOLUTION FOR SYMMETRY    1  ( A  )    LABEL   YDIPLEN     FREQUENCY   0.794668D-01

@ QRLRVE:  << XDIPLEN  ; YDIPLEN  >> (   0.07947):    1.746894949156E-14

@ QRLRVE:  << YDIPLEN  ; YDIPLEN  >> (   0.07947):     9.32449761239    

@ QRLRVE:  << ZDIPLEN  ; YDIPLEN  >> (   0.07947):    8.198244517048E-05

@ QRLRVE: SINGLET SOLUTION FOR SYMMETRY    1  ( A  )    LABEL   YDIPLEN     FREQUENCY   0.993334D-01

@ QRLRVE:  << XDIPLEN  ; YDIPLEN  >> (   0.09933):    1.856947270644E-14

@ QRLRVE:  << YDIPLEN  ; YDIPLEN  >> (   0.09933):     9.40285645767    

@ QRLRVE:  << ZDIPLEN  ; YDIPLEN  >> (   0.09933):    8.331378083100E-05

@ QRLRVE: SINGLET SOLUTION FOR SYMMETRY    1  ( A  )    LABEL   YDIPLEN     FREQUENCY   0.119200D+00

@ QRLRVE:  << XDIPLEN  ; YDIPLEN  >> (   0.11920):    1.999771792594E-14

@ QRLRVE:  << YDIPLEN  ; YDIPLEN  >> (   0.11920):     9.50098701140    

@ QRLRVE:  << ZDIPLEN  ; YDIPLEN  >> (   0.11920):    8.465023675297E-05

@ QRLRVE: SINGLET SOLUTION FOR SYMMETRY    1  ( A  )    LABEL   YDIPLEN     FREQUENCY   0.139067D+00

@ QRLRVE:  << XDIPLEN  ; YDIPLEN  >> (   0.13907):    2.181219684390E-14

@ QRLRVE:  << YDIPLEN  ; YDIPLEN  >> (   0.13907):     9.62046144638    

@ QRLRVE:  << ZDIPLEN  ; YDIPLEN  >> (   0.13907):    8.571607165607E-05

@ QRLRVE: SINGLET SOLUTION FOR SYMMETRY    1  ( A  )    LABEL   YDIPLEN     FREQUENCY   0.158934D+00

@ QRLRVE:  << XDIPLEN  ; YDIPLEN  >> (   0.15893):    2.409122058880E-14

@ QRLRVE:  << YDIPLEN  ; YDIPLEN  >> (   0.15893):     9.76329921783    

@ QRLRVE:  << ZDIPLEN  ; YDIPLEN  >> (   0.15893):    8.606435466473E-05


 QRLRVE -- linear response calculation for symmetry  1  ( A  )
 QRLRVE -- operator label : ZDIPLEN 
 QRLRVE -- operator spin  :   0
 QRLRVE -- frequencies :  0.000000  0.019867  0.039733  0.059600  0.079467
                          0.099333  0.119200  0.139067  0.158934



 ---  SOLVING SETS OF LINEAR EQUATIONS FOR LINEAR RESPONSE PROPERTIES ---

 Operator symmetry = 1  ( A  ); triplet =   F

RSPORT:    1 out of    9 new trial vectors linear dependent

 ** RSPCTL MICROITERATION NUMBER    1

       No.  Residual tot.,    conf., and orb.    Bnorm      Frequency 
      ----------------------------------------------------------------
         1    1.55699D+00  0.00D+00  1.56D+00  2.19D+00    0.00000D+00
         2    1.55847D+00  0.00D+00  1.56D+00  2.20D+00    1.98667D-02
         3    1.56295D+00  0.00D+00  1.56D+00  2.21D+00    3.97334D-02
         4    1.57050D+00  0.00D+00  1.57D+00  2.23D+00    5.96001D-02
         5    1.58127D+00  0.00D+00  1.58D+00  2.26D+00    7.94668D-02
         6    1.59545D+00  0.00D+00  1.60D+00  2.31D+00    9.93334D-02
         7    1.61334D+00  0.00D+00  1.61D+00  2.36D+00    1.19200D-01
         8    1.63532D+00  0.00D+00  1.64D+00  2.43D+00    1.39067D-01
         9    1.66189D+00  0.00D+00  1.66D+00  2.51D+00    1.58934D-01

 ** RSPCTL MICROITERATION NUMBER    2

       No.  Residual tot.,    conf., and orb.    Bnorm      Frequency 
      ----------------------------------------------------------------
         1    3.85385D-01  0.00D+00  3.85D-01  2.38D+00    0.00000D+00
         2    3.85986D-01  0.00D+00  3.86D-01  2.39D+00    1.98667D-02
         3    3.87803D-01  0.00D+00  3.88D-01  2.41D+00    3.97334D-02
         4    3.90881D-01  0.00D+00  3.91D-01  2.43D+00    5.96001D-02
         5    3.95296D-01  0.00D+00  3.95D-01  2.47D+00    7.94668D-02
         6    4.01162D-01  0.00D+00  4.01D-01  2.52D+00    9.93334D-02
         7    4.08643D-01  0.00D+00  4.09D-01  2.59D+00    1.19200D-01
         8    4.17962D-01  0.00D+00  4.18D-01  2.67D+00    1.39067D-01
         9    4.29426D-01  0.00D+00  4.29D-01  2.78D+00    1.58934D-01

 ** RSPCTL MICROITERATION NUMBER    3

       No.  Residual tot.,    conf., and orb.    Bnorm      Frequency 
      ----------------------------------------------------------------
         1    4.21023D-02  0.00D+00  4.21D-02  2.40D+00    0.00000D+00
         2    4.21941D-02  0.00D+00  4.22D-02  2.41D+00    1.98667D-02
         3    4.24722D-02  0.00D+00  4.25D-02  2.42D+00    3.97334D-02
         4    4.29441D-02  0.00D+00  4.29D-02  2.45D+00    5.96001D-02
         5    4.36232D-02  0.00D+00  4.36D-02  2.49D+00    7.94668D-02
         6    4.45299D-02  0.00D+00  4.45D-02  2.54D+00    9.93334D-02
         7    4.56928D-02  0.00D+00  4.57D-02  2.61D+00    1.19200D-01
         8    4.71520D-02  0.00D+00  4.72D-02  2.69D+00    1.39067D-01
         9    4.89630D-02  0.00D+00  4.90D-02  2.80D+00    1.58934D-01

 ** RSPCTL MICROITERATION NUMBER    4

       No.  Residual tot.,    conf., and orb.    Bnorm      Frequency 
      ----------------------------------------------------------------
         1    3.24896D-03  0.00D+00  3.25D-03  2.40D+00    0.00000D+00
         2    3.25835D-03  0.00D+00  3.26D-03  2.41D+00    1.98667D-02
         3    3.28689D-03  0.00D+00  3.29D-03  2.42D+00    3.97334D-02
         4    3.33574D-03  0.00D+00  3.34D-03  2.45D+00    5.96001D-02
         5    3.40696D-03  0.00D+00  3.41D-03  2.49D+00    7.94668D-02
         6    3.50375D-03  0.00D+00  3.50D-03  2.54D+00    9.93334D-02
         7    3.63080D-03  0.00D+00  3.63D-03  2.61D+00    1.19200D-01
         8    3.79492D-03  0.00D+00  3.79D-03  2.69D+00    1.39067D-01
         9    4.00598D-03  0.00D+00  4.01D-03  2.80D+00    1.58934D-01

 ** RSPCTL MICROITERATION NUMBER    5

       No.  Residual tot.,    conf., and orb.    Bnorm      Frequency 
      ----------------------------------------------------------------
         1    4.09878D-04  0.00D+00  4.10D-04  2.40D+00    0.00000D+00
         2    4.11411D-04  0.00D+00  4.11D-04  2.41D+00    1.98667D-02
         3    4.16081D-04  0.00D+00  4.16D-04  2.42D+00    3.97334D-02
         4    4.24102D-04  0.00D+00  4.24D-04  2.45D+00    5.96001D-02
         5    4.35857D-04  0.00D+00  4.36D-04  2.49D+00    7.94668D-02
         6    4.51942D-04  0.00D+00  4.52D-04  2.54D+00    9.93334D-02
         7    4.73236D-04  0.00D+00  4.73D-04  2.61D+00    1.19200D-01
         8    5.01013D-04  0.00D+00  5.01D-04  2.69D+00    1.39067D-01
         9    5.37129D-04  0.00D+00  5.37D-04  2.80D+00    1.58934D-01

 *** THE REQUESTED    9 SOLUTION VECTORS CONVERGED

 Convergence of RSP solution vectors, threshold = 1.00D-03
 ---------------------------------------------------------------
 (dimension of paired reduced space:   88)
 RSP solution vector no.    1; norm of residual   1.71D-04
 RSP solution vector no.    2; norm of residual   1.71D-04
 RSP solution vector no.    3; norm of residual   1.72D-04
 RSP solution vector no.    4; norm of residual   1.73D-04
 RSP solution vector no.    5; norm of residual   1.75D-04
 RSP solution vector no.    6; norm of residual   1.78D-04
 RSP solution vector no.    7; norm of residual   1.81D-04
 RSP solution vector no.    8; norm of residual   1.86D-04
 RSP solution vector no.    9; norm of residual   1.92D-04

 *** RSPCTL MICROITERATIONS CONVERGED

@ QRLRVE: SINGLET SOLUTION FOR SYMMETRY    1  ( A  )    LABEL   ZDIPLEN     FREQUENCY   0.000000D+00

@ QRLRVE:  << XDIPLEN  ; ZDIPLEN  >> (   0.00000):    1.434316201487E-14

@ QRLRVE:  << YDIPLEN  ; ZDIPLEN  >> (   0.00000):   -4.564272070059E-05

@ QRLRVE:  << ZDIPLEN  ; ZDIPLEN  >> (   0.00000):     8.48750985430    

@ QRLRVE: SINGLET SOLUTION FOR SYMMETRY    1  ( A  )    LABEL   ZDIPLEN     FREQUENCY   0.198667D-01

@ QRLRVE:  << XDIPLEN  ; ZDIPLEN  >> (   0.01987):    1.477741347346E-14

@ QRLRVE:  << YDIPLEN  ; ZDIPLEN  >> (   0.01987):   -4.565297430066E-05

@ QRLRVE:  << ZDIPLEN  ; ZDIPLEN  >> (   0.01987):     8.49643324591    

@ QRLRVE: SINGLET SOLUTION FOR SYMMETRY    1  ( A  )    LABEL   ZDIPLEN     FREQUENCY   0.397334D-01

@ QRLRVE:  << XDIPLEN  ; ZDIPLEN  >> (   0.03973):    1.608215932222E-14

@ QRLRVE:  << YDIPLEN  ; ZDIPLEN  >> (   0.03973):   -4.568677555055E-05

@ QRLRVE:  << ZDIPLEN  ; ZDIPLEN  >> (   0.03973):     8.52338264314    

@ QRLRVE: SINGLET SOLUTION FOR SYMMETRY    1  ( A  )    LABEL   ZDIPLEN     FREQUENCY   0.596001D-01

@ QRLRVE:  << XDIPLEN  ; ZDIPLEN  >> (   0.05960):    1.826319091011E-14

@ QRLRVE:  << YDIPLEN  ; ZDIPLEN  >> (   0.05960):   -4.575392414872E-05

@ QRLRVE:  << ZDIPLEN  ; ZDIPLEN  >> (   0.05960):     8.56890703522    

@ QRLRVE: SINGLET SOLUTION FOR SYMMETRY    1  ( A  )    LABEL   ZDIPLEN     FREQUENCY   0.794668D-01

@ QRLRVE:  << XDIPLEN  ; ZDIPLEN  >> (   0.07947):    2.132968942171E-14

@ QRLRVE:  << YDIPLEN  ; ZDIPLEN  >> (   0.07947):   -4.587317318774E-05

@ QRLRVE:  << ZDIPLEN  ; ZDIPLEN  >> (   0.07947):     8.63396063676    

@ QRLRVE: SINGLET SOLUTION FOR SYMMETRY    1  ( A  )    LABEL   ZDIPLEN     FREQUENCY   0.993334D-01

@ QRLRVE:  << XDIPLEN  ; ZDIPLEN  >> (   0.09933):    2.529412258734E-14

@ QRLRVE:  << YDIPLEN  ; ZDIPLEN  >> (   0.09933):   -4.607646511726E-05

@ QRLRVE:  << ZDIPLEN  ; ZDIPLEN  >> (   0.09933):     8.71996729636    

@ QRLRVE: SINGLET SOLUTION FOR SYMMETRY    1  ( A  )    LABEL   ZDIPLEN     FREQUENCY   0.119200D+00

@ QRLRVE:  << XDIPLEN  ; ZDIPLEN  >> (   0.11920):    3.017380508122E-14

@ QRLRVE:  << YDIPLEN  ; ZDIPLEN  >> (   0.11920):   -4.641626873052E-05

@ QRLRVE:  << ZDIPLEN  ; ZDIPLEN  >> (   0.11920):     8.82892311782    

@ QRLRVE: SINGLET SOLUTION FOR SYMMETRY    1  ( A  )    LABEL   ZDIPLEN     FREQUENCY   0.139067D+00

@ QRLRVE:  << XDIPLEN  ; ZDIPLEN  >> (   0.13907):    3.599734775095E-14

@ QRLRVE:  << YDIPLEN  ; ZDIPLEN  >> (   0.13907):   -4.697796491926E-05

@ QRLRVE:  << ZDIPLEN  ; ZDIPLEN  >> (   0.13907):     8.96355333338    

@ QRLRVE: SINGLET SOLUTION FOR SYMMETRY    1  ( A  )    LABEL   ZDIPLEN     FREQUENCY   0.158934D+00

@ QRLRVE:  << XDIPLEN  ; ZDIPLEN  >> (   0.15893):    4.282352052197E-14

@ QRLRVE:  << YDIPLEN  ; ZDIPLEN  >> (   0.15893):   -4.790082642188E-05

@ QRLRVE:  << ZDIPLEN  ; ZDIPLEN  >> (   0.15893):     9.12755069047    
 
 ======================================================================
 ---  L I N E A R   R E S P O N S E   F U N C T I O N S --- 
 ======================================================================

 The -<<A;B>>(omega_b) functions from vectors generated
 in a *QUADRA calculation of <<A;B,C>>(omega_b,omega_c)

 Note: the accuracy of off-diagonal elements will be linear
 in the convergence threshold THCLR =  1.00D-03


 Perturbation symmetry.     KSYMOP:           1
 Perturbation spin symmetry.TRPLET:           F
 Orbital variables.         KZWOPT:         980
 Configuration variables.   KZCONF:           0
 Total number of variables. KZVAR :         980

@ Singlet linear response function in a.u.

@ A operator, symmetry, frequency:   XDIPLEN    1 -0.000000
@ B operator, symmetry, frequency:   XDIPLEN    1  0.000000

@ Value of linear response -<<A;B>>(omega):       7.848311879090

@ Singlet linear response function in a.u.

@ A operator, symmetry, frequency:   YDIPLEN    1 -0.000000
@ B operator, symmetry, frequency:   XDIPLEN    1  0.000000

@ Value of linear response -<<A;B>>(omega):       0.000000000000

@ Singlet linear response function in a.u.

@ A operator, symmetry, frequency:   ZDIPLEN    1 -0.000000
@ B operator, symmetry, frequency:   XDIPLEN    1  0.000000

@ Value of linear response -<<A;B>>(omega):      -0.000000000000

@ Singlet linear response function in a.u.

@ A operator, symmetry, frequency:   XDIPLEN    1 -0.019867
@ B operator, symmetry, frequency:   XDIPLEN    1  0.019867

@ Value of linear response -<<A;B>>(omega):       7.858504472968

@ Singlet linear response function in a.u.

@ A operator, symmetry, frequency:   YDIPLEN    1 -0.019867
@ B operator, symmetry, frequency:   XDIPLEN    1  0.019867

@ Value of linear response -<<A;B>>(omega):       0.000000000000

@ Singlet linear response function in a.u.

@ A operator, symmetry, frequency:   ZDIPLEN    1 -0.019867
@ B operator, symmetry, frequency:   XDIPLEN    1  0.019867

@ Value of linear response -<<A;B>>(omega):      -0.000000000000

@ Singlet linear response function in a.u.

@ A operator, symmetry, frequency:   XDIPLEN    1 -0.039733
@ B operator, symmetry, frequency:   XDIPLEN    1  0.039733

@ Value of linear response -<<A;B>>(omega):       7.889400153057

@ Singlet linear response function in a.u.

@ A operator, symmetry, frequency:   YDIPLEN    1 -0.039733
@ B operator, symmetry, frequency:   XDIPLEN    1  0.039733

@ Value of linear response -<<A;B>>(omega):       0.000000000000

@ Singlet linear response function in a.u.

@ A operator, symmetry, frequency:   ZDIPLEN    1 -0.039733
@ B operator, symmetry, frequency:   XDIPLEN    1  0.039733

@ Value of linear response -<<A;B>>(omega):      -0.000000000000

@ Singlet linear response function in a.u.

@ A operator, symmetry, frequency:   XDIPLEN    1 -0.059600
@ B operator, symmetry, frequency:   XDIPLEN    1  0.059600

@ Value of linear response -<<A;B>>(omega):       7.941986196899

@ Singlet linear response function in a.u.

@ A operator, symmetry, frequency:   YDIPLEN    1 -0.059600
@ B operator, symmetry, frequency:   XDIPLEN    1  0.059600

@ Value of linear response -<<A;B>>(omega):       0.000000000000

@ Singlet linear response function in a.u.

@ A operator, symmetry, frequency:   ZDIPLEN    1 -0.059600
@ B operator, symmetry, frequency:   XDIPLEN    1  0.059600

@ Value of linear response -<<A;B>>(omega):      -0.000000000000

@ Singlet linear response function in a.u.

@ A operator, symmetry, frequency:   XDIPLEN    1 -0.079467
@ B operator, symmetry, frequency:   XDIPLEN    1  0.079467

@ Value of linear response -<<A;B>>(omega):       8.018027491029

@ Singlet linear response function in a.u.

@ A operator, symmetry, frequency:   YDIPLEN    1 -0.079467
@ B operator, symmetry, frequency:   XDIPLEN    1  0.079467

@ Value of linear response -<<A;B>>(omega):       0.000000000000

@ Singlet linear response function in a.u.

@ A operator, symmetry, frequency:   ZDIPLEN    1 -0.079467
@ B operator, symmetry, frequency:   XDIPLEN    1  0.079467

@ Value of linear response -<<A;B>>(omega):      -0.000000000000

@ Singlet linear response function in a.u.

@ A operator, symmetry, frequency:   XDIPLEN    1 -0.000000
@ B operator, symmetry, frequency:   YDIPLEN    1  0.000000

@ Value of linear response -<<A;B>>(omega):       0.000000000000

@ Singlet linear response function in a.u.

@ A operator, symmetry, frequency:   YDIPLEN    1 -0.000000
@ B operator, symmetry, frequency:   YDIPLEN    1  0.000000

@ Value of linear response -<<A;B>>(omega):       9.189277055805

@ Singlet linear response function in a.u.

@ A operator, symmetry, frequency:   ZDIPLEN    1 -0.000000
@ B operator, symmetry, frequency:   YDIPLEN    1  0.000000

@ Value of linear response -<<A;B>>(omega):       0.000079206673

@ Singlet linear response function in a.u.

@ A operator, symmetry, frequency:   XDIPLEN    1 -0.019867
@ B operator, symmetry, frequency:   YDIPLEN    1  0.019867

@ Value of linear response -<<A;B>>(omega):       0.000000000000

@ Singlet linear response function in a.u.

@ A operator, symmetry, frequency:   YDIPLEN    1 -0.019867
@ B operator, symmetry, frequency:   YDIPLEN    1  0.019867

@ Value of linear response -<<A;B>>(omega):       9.197580045171

@ Singlet linear response function in a.u.

@ A operator, symmetry, frequency:   ZDIPLEN    1 -0.019867
@ B operator, symmetry, frequency:   YDIPLEN    1  0.019867

@ Value of linear response -<<A;B>>(omega):       0.000079392851

@ Singlet linear response function in a.u.

@ A operator, symmetry, frequency:   XDIPLEN    1 -0.039733
@ B operator, symmetry, frequency:   YDIPLEN    1  0.039733

@ Value of linear response -<<A;B>>(omega):       0.000000000000

@ Singlet linear response function in a.u.

@ A operator, symmetry, frequency:   YDIPLEN    1 -0.039733
@ B operator, symmetry, frequency:   YDIPLEN    1  0.039733

@ Value of linear response -<<A;B>>(omega):       9.222605764625

@ Singlet linear response function in a.u.

@ A operator, symmetry, frequency:   ZDIPLEN    1 -0.039733
@ B operator, symmetry, frequency:   YDIPLEN    1  0.039733

@ Value of linear response -<<A;B>>(omega):       0.000079942211

@ Singlet linear response function in a.u.

@ A operator, symmetry, frequency:   XDIPLEN    1 -0.059600
@ B operator, symmetry, frequency:   YDIPLEN    1  0.059600

@ Value of linear response -<<A;B>>(omega):       0.000000000000

@ Singlet linear response function in a.u.

@ A operator, symmetry, frequency:   YDIPLEN    1 -0.059600
@ B operator, symmetry, frequency:   YDIPLEN    1  0.059600

@ Value of linear response -<<A;B>>(omega):       9.264709133740

@ Singlet linear response function in a.u.

@ A operator, symmetry, frequency:   ZDIPLEN    1 -0.059600
@ B operator, symmetry, frequency:   YDIPLEN    1  0.059600

@ Value of linear response -<<A;B>>(omega):       0.000080824845

@ Singlet linear response function in a.u.

@ A operator, symmetry, frequency:   XDIPLEN    1 -0.079467
@ B operator, symmetry, frequency:   YDIPLEN    1  0.079467

@ Value of linear response -<<A;B>>(omega):       0.000000000000

@ Singlet linear response function in a.u.

@ A operator, symmetry, frequency:   YDIPLEN    1 -0.079467
@ B operator, symmetry, frequency:   YDIPLEN    1  0.079467

[...]
@ B-freq = 0.059600  C-freq = 0.059600     beta(Y;Z,Y) =     11.03816868
@ B-freq = 0.059600  C-freq = 0.059600     beta(Z;Z,Y) =      0.00094511
@ B-freq = 0.079467  C-freq = 0.059600     beta(X;Z,Y) =      0.00000000
@ B-freq = 0.079467  C-freq = 0.059600     beta(Y;Z,Y) =     11.45463674
@ B-freq = 0.079467  C-freq = 0.059600     beta(Z;Z,Y) =      0.00101161
@ B-freq = 0.000000  C-freq = 0.079467     beta(X;X,Y) = beta(X,Y,X)
@ B-freq = 0.000000  C-freq = 0.079467     beta(Y;X,Y) = beta(Y,Y,X)
@ B-freq = 0.000000  C-freq = 0.079467     beta(Z;X,Y) = beta(Z,Y,X)
@ B-freq = 0.019867  C-freq = 0.079467     beta(X;X,Y) = beta(X,Y,X)
@ B-freq = 0.019867  C-freq = 0.079467     beta(Y;X,Y) = beta(Y,Y,X)
@ B-freq = 0.019867  C-freq = 0.079467     beta(Z;X,Y) = beta(Z,Y,X)
@ B-freq = 0.039733  C-freq = 0.079467     beta(X;X,Y) = beta(X,Y,X)
@ B-freq = 0.039733  C-freq = 0.079467     beta(Y;X,Y) = beta(Y,Y,X)
@ B-freq = 0.039733  C-freq = 0.079467     beta(Z;X,Y) = beta(Z,Y,X)
@ B-freq = 0.059600  C-freq = 0.079467     beta(X;X,Y) = beta(X,Y,X)
@ B-freq = 0.059600  C-freq = 0.079467     beta(Y;X,Y) = beta(Y,Y,X)
@ B-freq = 0.059600  C-freq = 0.079467     beta(Z;X,Y) = beta(Z,Y,X)
@ B-freq = 0.079467  C-freq = 0.079467     beta(X;X,Y) = beta(X,Y,X)
@ B-freq = 0.079467  C-freq = 0.079467     beta(Y;X,Y) = beta(Y,Y,X)
@ B-freq = 0.079467  C-freq = 0.079467     beta(Z;X,Y) = beta(Z,Y,X)
@ B-freq = 0.000000  C-freq = 0.079467     beta(X;Y,Y) = beta(X,Y,Y)
@ B-freq = 0.000000  C-freq = 0.079467     beta(Y;Y,Y) = beta(Y,Y,Y)
@ B-freq = 0.000000  C-freq = 0.079467     beta(Z;Y,Y) = beta(Z,Y,Y)
@ B-freq = 0.019867  C-freq = 0.079467     beta(X;Y,Y) = beta(X,Y,Y)
@ B-freq = 0.019867  C-freq = 0.079467     beta(Y;Y,Y) = beta(Y,Y,Y)
@ B-freq = 0.019867  C-freq = 0.079467     beta(Z;Y,Y) = beta(Z,Y,Y)
@ B-freq = 0.039733  C-freq = 0.079467     beta(X;Y,Y) = beta(X,Y,Y)
@ B-freq = 0.039733  C-freq = 0.079467     beta(Y;Y,Y) = beta(Y,Y,Y)
@ B-freq = 0.039733  C-freq = 0.079467     beta(Z;Y,Y) = beta(Z,Y,Y)
@ B-freq = 0.059600  C-freq = 0.079467     beta(X;Y,Y) = beta(X,Y,Y)
@ B-freq = 0.059600  C-freq = 0.079467     beta(Y;Y,Y) = beta(Y,Y,Y)
@ B-freq = 0.059600  C-freq = 0.079467     beta(Z;Y,Y) = beta(Z,Y,Y)
@ B-freq = 0.079467  C-freq = 0.079467     beta(X;Y,Y) =     -0.00000000
@ B-freq = 0.079467  C-freq = 0.079467     beta(Y;Y,Y) =     -0.00079423
@ B-freq = 0.079467  C-freq = 0.079467     beta(Z;Y,Y) =     11.96113314
@ B-freq = 0.000000  C-freq = 0.079467     beta(X;Z,Y) =      0.00000000
@ B-freq = 0.000000  C-freq = 0.079467     beta(Y;Z,Y) =     10.60727955
@ B-freq = 0.000000  C-freq = 0.079467     beta(Z;Z,Y) =      0.00085225
@ B-freq = 0.019867  C-freq = 0.079467     beta(X;Z,Y) =      0.00000000
@ B-freq = 0.019867  C-freq = 0.079467     beta(Y;Z,Y) =     10.80003414
@ B-freq = 0.019867  C-freq = 0.079467     beta(Z;Z,Y) =      0.00088263
@ B-freq = 0.039733  C-freq = 0.079467     beta(X;Z,Y) =      0.00000000
@ B-freq = 0.039733  C-freq = 0.079467     beta(Y;Z,Y) =     11.07880045
@ B-freq = 0.039733  C-freq = 0.079467     beta(Z;Z,Y) =      0.00092656
@ B-freq = 0.059600  C-freq = 0.079467     beta(X;Z,Y) =      0.00000000
@ B-freq = 0.059600  C-freq = 0.079467     beta(Y;Z,Y) =     11.45390203
@ B-freq = 0.059600  C-freq = 0.079467     beta(Z;Z,Y) =      0.00098542
@ B-freq = 0.079467  C-freq = 0.079467     beta(X;Z,Y) =      0.00000000
@ B-freq = 0.079467  C-freq = 0.079467     beta(Y;Z,Y) =     11.94019888
@ B-freq = 0.079467  C-freq = 0.079467     beta(Z;Z,Y) =      0.00106091
@ B-freq = 0.000000  C-freq = 0.000000     beta(X;X,Z) = beta(Z,X,X)
@ B-freq = 0.000000  C-freq = 0.000000     beta(Y;X,Z) = beta(Z,Y,X)
@ B-freq = 0.000000  C-freq = 0.000000     beta(Z;X,Z) = beta(Z,Z,X)
@ B-freq = 0.019867  C-freq = 0.000000     beta(X;X,Z) = beta(X,Z,X)
@ B-freq = 0.019867  C-freq = 0.000000     beta(Y;X,Z) = beta(Y,Z,X)
@ B-freq = 0.019867  C-freq = 0.000000     beta(Z;X,Z) = beta(Z,Z,X)
@ B-freq = 0.039733  C-freq = 0.000000     beta(X;X,Z) = beta(X,Z,X)
@ B-freq = 0.039733  C-freq = 0.000000     beta(Y;X,Z) = beta(Y,Z,X)
@ B-freq = 0.039733  C-freq = 0.000000     beta(Z;X,Z) = beta(Z,Z,X)
@ B-freq = 0.059600  C-freq = 0.000000     beta(X;X,Z) = beta(X,Z,X)
@ B-freq = 0.059600  C-freq = 0.000000     beta(Y;X,Z) = beta(Y,Z,X)
@ B-freq = 0.059600  C-freq = 0.000000     beta(Z;X,Z) = beta(Z,Z,X)
@ B-freq = 0.079467  C-freq = 0.000000     beta(X;X,Z) = beta(X,Z,X)
@ B-freq = 0.079467  C-freq = 0.000000     beta(Y;X,Z) = beta(Y,Z,X)
@ B-freq = 0.079467  C-freq = 0.000000     beta(Z;X,Z) = beta(Z,Z,X)
@ B-freq = 0.000000  C-freq = 0.000000     beta(X;Y,Z) = beta(Z,Y,X)
@ B-freq = 0.000000  C-freq = 0.000000     beta(Y;Y,Z) = beta(Z,Y,Y)
@ B-freq = 0.000000  C-freq = 0.000000     beta(Z;Y,Z) = beta(Z,Z,Y)
@ B-freq = 0.019867  C-freq = 0.000000     beta(X;Y,Z) = beta(X,Z,Y)
@ B-freq = 0.019867  C-freq = 0.000000     beta(Y;Y,Z) = beta(Y,Z,Y)
@ B-freq = 0.019867  C-freq = 0.000000     beta(Z;Y,Z) = beta(Z,Z,Y)
@ B-freq = 0.039733  C-freq = 0.000000     beta(X;Y,Z) = beta(X,Z,Y)
@ B-freq = 0.039733  C-freq = 0.000000     beta(Y;Y,Z) = beta(Y,Z,Y)
@ B-freq = 0.039733  C-freq = 0.000000     beta(Z;Y,Z) = beta(Z,Z,Y)
@ B-freq = 0.059600  C-freq = 0.000000     beta(X;Y,Z) = beta(X,Z,Y)
@ B-freq = 0.059600  C-freq = 0.000000     beta(Y;Y,Z) = beta(Y,Z,Y)
@ B-freq = 0.059600  C-freq = 0.000000     beta(Z;Y,Z) = beta(Z,Z,Y)
@ B-freq = 0.079467  C-freq = 0.000000     beta(X;Y,Z) = beta(X,Z,Y)
@ B-freq = 0.079467  C-freq = 0.000000     beta(Y;Y,Z) = beta(Y,Z,Y)
@ B-freq = 0.079467  C-freq = 0.000000     beta(Z;Y,Z) = beta(Z,Z,Y)
@ B-freq = 0.000000  C-freq = 0.000000     beta(X;Z,Z) = beta(Z,Z,X)
@ B-freq = 0.000000  C-freq = 0.000000     beta(Y;Z,Z) = beta(Z,Z,Y)
@ B-freq = 0.000000  C-freq = 0.000000     beta(X;Z,Z) =      0.00000000
@ B-freq = 0.000000  C-freq = 0.000000     beta(Y;Z,Z) =      0.00080882
@ B-freq = 0.000000  C-freq = 0.000000     beta(Z;Z,Z) =      7.22447497
@ B-freq = 0.019867  C-freq = 0.000000     beta(X;Z,Z) =      0.00000000
@ B-freq = 0.019867  C-freq = 0.000000     beta(Y;Z,Z) =      0.00081170
@ B-freq = 0.019867  C-freq = 0.000000     beta(Z;Z,Z) =      7.25647062
@ B-freq = 0.039733  C-freq = 0.000000     beta(X;Z,Z) =      0.00000000
@ B-freq = 0.039733  C-freq = 0.000000     beta(Y;Z,Z) =      0.00082022
@ B-freq = 0.039733  C-freq = 0.000000     beta(Z;Z,Z) =      7.35388067
@ B-freq = 0.059600  C-freq = 0.000000     beta(X;Z,Z) =      0.00000000
@ B-freq = 0.059600  C-freq = 0.000000     beta(Y;Z,Z) =      0.00083401
@ B-freq = 0.059600  C-freq = 0.000000     beta(Z;Z,Z) =      7.52112347
@ B-freq = 0.079467  C-freq = 0.000000     beta(X;Z,Z) =      0.00000000
@ B-freq = 0.079467  C-freq = 0.000000     beta(Y;Z,Z) =      0.00085225
@ B-freq = 0.079467  C-freq = 0.000000     beta(Z;Z,Z) =      7.76608806
@ B-freq = 0.000000  C-freq = 0.019867     beta(X;X,Z) = beta(X,Z,X)
@ B-freq = 0.000000  C-freq = 0.019867     beta(Y;X,Z) = beta(Y,Z,X)
@ B-freq = 0.000000  C-freq = 0.019867     beta(Z;X,Z) = beta(Z,Z,X)
@ B-freq = 0.019867  C-freq = 0.019867     beta(X;X,Z) = beta(X,Z,X)
@ B-freq = 0.019867  C-freq = 0.019867     beta(Y;X,Z) = beta(Y,Z,X)
@ B-freq = 0.019867  C-freq = 0.019867     beta(Z;X,Z) = beta(Z,Z,X)
@ B-freq = 0.039733  C-freq = 0.019867     beta(X;X,Z) = beta(X,Z,X)
@ B-freq = 0.039733  C-freq = 0.019867     beta(Y;X,Z) = beta(Y,Z,X)
@ B-freq = 0.039733  C-freq = 0.019867     beta(Z;X,Z) = beta(Z,Z,X)
@ B-freq = 0.059600  C-freq = 0.019867     beta(X;X,Z) = beta(X,Z,X)
@ B-freq = 0.059600  C-freq = 0.019867     beta(Y;X,Z) = beta(Y,Z,X)
@ B-freq = 0.059600  C-freq = 0.019867     beta(Z;X,Z) = beta(Z,Z,X)
@ B-freq = 0.079467  C-freq = 0.019867     beta(X;X,Z) = beta(X,Z,X)
@ B-freq = 0.079467  C-freq = 0.019867     beta(Y;X,Z) = beta(Y,Z,X)
@ B-freq = 0.079467  C-freq = 0.019867     beta(Z;X,Z) = beta(Z,Z,X)
@ B-freq = 0.000000  C-freq = 0.019867     beta(X;Y,Z) = beta(X,Z,Y)
@ B-freq = 0.000000  C-freq = 0.019867     beta(Y;Y,Z) = beta(Y,Z,Y)
@ B-freq = 0.000000  C-freq = 0.019867     beta(Z;Y,Z) = beta(Z,Z,Y)
@ B-freq = 0.019867  C-freq = 0.019867     beta(X;Y,Z) = beta(X,Z,Y)
@ B-freq = 0.019867  C-freq = 0.019867     beta(Y;Y,Z) = beta(Y,Z,Y)
@ B-freq = 0.019867  C-freq = 0.019867     beta(Z;Y,Z) = beta(Z,Z,Y)
@ B-freq = 0.039733  C-freq = 0.019867     beta(X;Y,Z) = beta(X,Z,Y)
@ B-freq = 0.039733  C-freq = 0.019867     beta(Y;Y,Z) = beta(Y,Z,Y)
@ B-freq = 0.039733  C-freq = 0.019867     beta(Z;Y,Z) = beta(Z,Z,Y)
@ B-freq = 0.059600  C-freq = 0.019867     beta(X;Y,Z) = beta(X,Z,Y)
@ B-freq = 0.059600  C-freq = 0.019867     beta(Y;Y,Z) = beta(Y,Z,Y)
@ B-freq = 0.059600  C-freq = 0.019867     beta(Z;Y,Z) = beta(Z,Z,Y)
@ B-freq = 0.079467  C-freq = 0.019867     beta(X;Y,Z) = beta(X,Z,Y)
@ B-freq = 0.079467  C-freq = 0.019867     beta(Y;Y,Z) = beta(Y,Z,Y)
@ B-freq = 0.079467  C-freq = 0.019867     beta(Z;Y,Z) = beta(Z,Z,Y)
@ B-freq = 0.000000  C-freq = 0.019867     beta(X;Z,Z) = beta(X,Z,Z)
@ B-freq = 0.000000  C-freq = 0.019867     beta(Y;Z,Z) = beta(Y,Z,Z)
@ B-freq = 0.000000  C-freq = 0.019867     beta(Z;Z,Z) = beta(Z,Z,Z)
@ B-freq = 0.019867  C-freq = 0.019867     beta(X;Z,Z) =      0.00000000
@ B-freq = 0.019867  C-freq = 0.019867     beta(Y;Z,Z) =      0.00081447
@ B-freq = 0.019867  C-freq = 0.019867     beta(Z;Z,Z) =      7.32117144
@ B-freq = 0.039733  C-freq = 0.019867     beta(X;Z,Z) =      0.00000000
@ B-freq = 0.039733  C-freq = 0.019867     beta(Y;Z,Z) =      0.00082234
@ B-freq = 0.039733  C-freq = 0.019867     beta(Z;Z,Z) =      7.45348094
@ B-freq = 0.059600  C-freq = 0.019867     beta(X;Z,Z) =      0.00000000
@ B-freq = 0.059600  C-freq = 0.019867     beta(Y;Z,Z) =      0.00083442
@ B-freq = 0.059600  C-freq = 0.019867     beta(Z;Z,Z) =      7.65952372
@ B-freq = 0.079467  C-freq = 0.019867     beta(X;Z,Z) =      0.00000000
@ B-freq = 0.079467  C-freq = 0.019867     beta(Y;Z,Z) =      0.00084916
@ B-freq = 0.079467  C-freq = 0.019867     beta(Z;Z,Z) =      7.94931818
@ B-freq = 0.000000  C-freq = 0.039733     beta(X;X,Z) = beta(X,Z,X)
@ B-freq = 0.000000  C-freq = 0.039733     beta(Y;X,Z) = beta(Y,Z,X)
@ B-freq = 0.000000  C-freq = 0.039733     beta(Z;X,Z) = beta(Z,Z,X)
@ B-freq = 0.019867  C-freq = 0.039733     beta(X;X,Z) = beta(X,Z,X)
@ B-freq = 0.019867  C-freq = 0.039733     beta(Y;X,Z) = beta(Y,Z,X)
@ B-freq = 0.019867  C-freq = 0.039733     beta(Z;X,Z) = beta(Z,Z,X)
@ B-freq = 0.039733  C-freq = 0.039733     beta(X;X,Z) = beta(X,Z,X)
@ B-freq = 0.039733  C-freq = 0.039733     beta(Y;X,Z) = beta(Y,Z,X)
@ B-freq = 0.039733  C-freq = 0.039733     beta(Z;X,Z) = beta(Z,Z,X)
@ B-freq = 0.059600  C-freq = 0.039733     beta(X;X,Z) = beta(X,Z,X)
@ B-freq = 0.059600  C-freq = 0.039733     beta(Y;X,Z) = beta(Y,Z,X)
@ B-freq = 0.059600  C-freq = 0.039733     beta(Z;X,Z) = beta(Z,Z,X)
@ B-freq = 0.079467  C-freq = 0.039733     beta(X;X,Z) = beta(X,Z,X)
@ B-freq = 0.079467  C-freq = 0.039733     beta(Y;X,Z) = beta(Y,Z,X)
@ B-freq = 0.079467  C-freq = 0.039733     beta(Z;X,Z) = beta(Z,Z,X)
@ B-freq = 0.000000  C-freq = 0.039733     beta(X;Y,Z) = beta(X,Z,Y)
@ B-freq = 0.000000  C-freq = 0.039733     beta(Y;Y,Z) = beta(Y,Z,Y)
@ B-freq = 0.000000  C-freq = 0.039733     beta(Z;Y,Z) = beta(Z,Z,Y)
@ B-freq = 0.019867  C-freq = 0.039733     beta(X;Y,Z) = beta(X,Z,Y)
@ B-freq = 0.019867  C-freq = 0.039733     beta(Y;Y,Z) = beta(Y,Z,Y)
@ B-freq = 0.019867  C-freq = 0.039733     beta(Z;Y,Z) = beta(Z,Z,Y)
@ B-freq = 0.039733  C-freq = 0.039733     beta(X;Y,Z) = beta(X,Z,Y)
@ B-freq = 0.039733  C-freq = 0.039733     beta(Y;Y,Z) = beta(Y,Z,Y)
@ B-freq = 0.039733  C-freq = 0.039733     beta(Z;Y,Z) = beta(Z,Z,Y)
@ B-freq = 0.059600  C-freq = 0.039733     beta(X;Y,Z) = beta(X,Z,Y)
@ B-freq = 0.059600  C-freq = 0.039733     beta(Y;Y,Z) = beta(Y,Z,Y)
@ B-freq = 0.059600  C-freq = 0.039733     beta(Z;Y,Z) = beta(Z,Z,Y)
@ B-freq = 0.079467  C-freq = 0.039733     beta(X;Y,Z) = beta(X,Z,Y)
@ B-freq = 0.079467  C-freq = 0.039733     beta(Y;Y,Z) = beta(Y,Z,Y)
@ B-freq = 0.079467  C-freq = 0.039733     beta(Z;Y,Z) = beta(Z,Z,Y)
@ B-freq = 0.000000  C-freq = 0.039733     beta(X;Z,Z) = beta(X,Z,Z)
@ B-freq = 0.000000  C-freq = 0.039733     beta(Y;Z,Z) = beta(Y,Z,Z)
@ B-freq = 0.000000  C-freq = 0.039733     beta(Z;Z,Z) = beta(Z,Z,Z)
@ B-freq = 0.019867  C-freq = 0.039733     beta(X;Z,Z) = beta(X,Z,Z)
@ B-freq = 0.019867  C-freq = 0.039733     beta(Y;Z,Z) = beta(Y,Z,Z)
@ B-freq = 0.019867  C-freq = 0.039733     beta(Z;Z,Z) = beta(Z,Z,Z)
@ B-freq = 0.039733  C-freq = 0.039733     beta(X;Z,Z) =      0.00000000
@ B-freq = 0.039733  C-freq = 0.039733     beta(Y;Z,Z) =      0.00082854
@ B-freq = 0.039733  C-freq = 0.039733     beta(Z;Z,Z) =      7.62454644
@ B-freq = 0.059600  C-freq = 0.039733     beta(X;Z,Z) =      0.00000000
@ B-freq = 0.059600  C-freq = 0.039733     beta(Y;Z,Z) =      0.00083720
@ B-freq = 0.059600  C-freq = 0.039733     beta(Z;Z,Z) =      7.87525268
@ B-freq = 0.079467  C-freq = 0.039733     beta(X;Z,Z) =      0.00000000
@ B-freq = 0.079467  C-freq = 0.039733     beta(Y;Z,Z) =      0.00084564
@ B-freq = 0.079467  C-freq = 0.039733     beta(Z;Z,Z) =      8.21831887
@ B-freq = 0.000000  C-freq = 0.059600     beta(X;X,Z) = beta(X,Z,X)
@ B-freq = 0.000000  C-freq = 0.059600     beta(Y;X,Z) = beta(Y,Z,X)
@ B-freq = 0.000000  C-freq = 0.059600     beta(Z;X,Z) = beta(Z,Z,X)
@ B-freq = 0.019867  C-freq = 0.059600     beta(X;X,Z) = beta(X,Z,X)
@ B-freq = 0.019867  C-freq = 0.059600     beta(Y;X,Z) = beta(Y,Z,X)
@ B-freq = 0.019867  C-freq = 0.059600     beta(Z;X,Z) = beta(Z,Z,X)
@ B-freq = 0.039733  C-freq = 0.059600     beta(X;X,Z) = beta(X,Z,X)
@ B-freq = 0.039733  C-freq = 0.059600     beta(Y;X,Z) = beta(Y,Z,X)
@ B-freq = 0.039733  C-freq = 0.059600     beta(Z;X,Z) = beta(Z,Z,X)
@ B-freq = 0.059600  C-freq = 0.059600     beta(X;X,Z) = beta(X,Z,X)
@ B-freq = 0.059600  C-freq = 0.059600     beta(Y;X,Z) = beta(Y,Z,X)
@ B-freq = 0.059600  C-freq = 0.059600     beta(Z;X,Z) = beta(Z,Z,X)
@ B-freq = 0.079467  C-freq = 0.059600     beta(X;X,Z) = beta(X,Z,X)
@ B-freq = 0.079467  C-freq = 0.059600     beta(Y;X,Z) = beta(Y,Z,X)
@ B-freq = 0.079467  C-freq = 0.059600     beta(Z;X,Z) = beta(Z,Z,X)
@ B-freq = 0.000000  C-freq = 0.059600     beta(X;Y,Z) = beta(X,Z,Y)
@ B-freq = 0.000000  C-freq = 0.059600     beta(Y;Y,Z) = beta(Y,Z,Y)
@ B-freq = 0.000000  C-freq = 0.059600     beta(Z;Y,Z) = beta(Z,Z,Y)
@ B-freq = 0.019867  C-freq = 0.059600     beta(X;Y,Z) = beta(X,Z,Y)
@ B-freq = 0.019867  C-freq = 0.059600     beta(Y;Y,Z) = beta(Y,Z,Y)
@ B-freq = 0.019867  C-freq = 0.059600     beta(Z;Y,Z) = beta(Z,Z,Y)
@ B-freq = 0.039733  C-freq = 0.059600     beta(X;Y,Z) = beta(X,Z,Y)
@ B-freq = 0.039733  C-freq = 0.059600     beta(Y;Y,Z) = beta(Y,Z,Y)
@ B-freq = 0.039733  C-freq = 0.059600     beta(Z;Y,Z) = beta(Z,Z,Y)
@ B-freq = 0.059600  C-freq = 0.059600     beta(X;Y,Z) = beta(X,Z,Y)
@ B-freq = 0.059600  C-freq = 0.059600     beta(Y;Y,Z) = beta(Y,Z,Y)
@ B-freq = 0.059600  C-freq = 0.059600     beta(Z;Y,Z) = beta(Z,Z,Y)
@ B-freq = 0.079467  C-freq = 0.059600     beta(X;Y,Z) = beta(X,Z,Y)
@ B-freq = 0.079467  C-freq = 0.059600     beta(Y;Y,Z) = beta(Y,Z,Y)
@ B-freq = 0.079467  C-freq = 0.059600     beta(Z;Y,Z) = beta(Z,Z,Y)
@ B-freq = 0.000000  C-freq = 0.059600     beta(X;Z,Z) = beta(X,Z,Z)
@ B-freq = 0.000000  C-freq = 0.059600     beta(Y;Z,Z) = beta(Y,Z,Z)
@ B-freq = 0.000000  C-freq = 0.059600     beta(Z;Z,Z) = beta(Z,Z,Z)
@ B-freq = 0.019867  C-freq = 0.059600     beta(X;Z,Z) = beta(X,Z,Z)
@ B-freq = 0.019867  C-freq = 0.059600     beta(Y;Z,Z) = beta(Y,Z,Z)
@ B-freq = 0.019867  C-freq = 0.059600     beta(Z;Z,Z) = beta(Z,Z,Z)
@ B-freq = 0.039733  C-freq = 0.059600     beta(X;Z,Z) = beta(X,Z,Z)
@ B-freq = 0.039733  C-freq = 0.059600     beta(Y;Z,Z) = beta(Y,Z,Z)
@ B-freq = 0.039733  C-freq = 0.059600     beta(Z;Z,Z) = beta(Z,Z,Z)
@ B-freq = 0.059600  C-freq = 0.059600     beta(X;Z,Z) =      0.00000000
@ B-freq = 0.059600  C-freq = 0.059600     beta(Y;Z,Z) =      0.00083961
@ B-freq = 0.059600  C-freq = 0.059600     beta(Z;Z,Z) =      8.17908655
@ B-freq = 0.079467  C-freq = 0.059600     beta(X;Z,Z) =      0.00000000
@ B-freq = 0.079467  C-freq = 0.059600     beta(Y;Z,Z) =      0.00083725
@ B-freq = 0.079467  C-freq = 0.059600     beta(Z;Z,Z) =      8.58732172
@ B-freq = 0.000000  C-freq = 0.079467     beta(X;X,Z) = beta(X,Z,X)
@ B-freq = 0.000000  C-freq = 0.079467     beta(Y;X,Z) = beta(Y,Z,X)
@ B-freq = 0.000000  C-freq = 0.079467     beta(Z;X,Z) = beta(Z,Z,X)
@ B-freq = 0.019867  C-freq = 0.079467     beta(X;X,Z) = beta(X,Z,X)
@ B-freq = 0.019867  C-freq = 0.079467     beta(Y;X,Z) = beta(Y,Z,X)
@ B-freq = 0.019867  C-freq = 0.079467     beta(Z;X,Z) = beta(Z,Z,X)
@ B-freq = 0.039733  C-freq = 0.079467     beta(X;X,Z) = beta(X,Z,X)
@ B-freq = 0.039733  C-freq = 0.079467     beta(Y;X,Z) = beta(Y,Z,X)
@ B-freq = 0.039733  C-freq = 0.079467     beta(Z;X,Z) = beta(Z,Z,X)
@ B-freq = 0.059600  C-freq = 0.079467     beta(X;X,Z) = beta(X,Z,X)
@ B-freq = 0.059600  C-freq = 0.079467     beta(Y;X,Z) = beta(Y,Z,X)
@ B-freq = 0.059600  C-freq = 0.079467     beta(Z;X,Z) = beta(Z,Z,X)
@ B-freq = 0.079467  C-freq = 0.079467     beta(X;X,Z) = beta(X,Z,X)
@ B-freq = 0.079467  C-freq = 0.079467     beta(Y;X,Z) = beta(Y,Z,X)
@ B-freq = 0.079467  C-freq = 0.079467     beta(Z;X,Z) = beta(Z,Z,X)
@ B-freq = 0.000000  C-freq = 0.079467     beta(X;Y,Z) = beta(X,Z,Y)
@ B-freq = 0.000000  C-freq = 0.079467     beta(Y;Y,Z) = beta(Y,Z,Y)
@ B-freq = 0.000000  C-freq = 0.079467     beta(Z;Y,Z) = beta(Z,Z,Y)
@ B-freq = 0.019867  C-freq = 0.079467     beta(X;Y,Z) = beta(X,Z,Y)
@ B-freq = 0.019867  C-freq = 0.079467     beta(Y;Y,Z) = beta(Y,Z,Y)
@ B-freq = 0.019867  C-freq = 0.079467     beta(Z;Y,Z) = beta(Z,Z,Y)
@ B-freq = 0.039733  C-freq = 0.079467     beta(X;Y,Z) = beta(X,Z,Y)
@ B-freq = 0.039733  C-freq = 0.079467     beta(Y;Y,Z) = beta(Y,Z,Y)
@ B-freq = 0.039733  C-freq = 0.079467     beta(Z;Y,Z) = beta(Z,Z,Y)
@ B-freq = 0.059600  C-freq = 0.079467     beta(X;Y,Z) = beta(X,Z,Y)
@ B-freq = 0.059600  C-freq = 0.079467     beta(Y;Y,Z) = beta(Y,Z,Y)
@ B-freq = 0.059600  C-freq = 0.079467     beta(Z;Y,Z) = beta(Z,Z,Y)
@ B-freq = 0.079467  C-freq = 0.079467     beta(X;Y,Z) = beta(X,Z,Y)
@ B-freq = 0.079467  C-freq = 0.079467     beta(Y;Y,Z) = beta(Y,Z,Y)
@ B-freq = 0.079467  C-freq = 0.079467     beta(Z;Y,Z) = beta(Z,Z,Y)
@ B-freq = 0.000000  C-freq = 0.079467     beta(X;Z,Z) = beta(X,Z,Z)
@ B-freq = 0.000000  C-freq = 0.079467     beta(Y;Z,Z) = beta(Y,Z,Z)
@ B-freq = 0.000000  C-freq = 0.079467     beta(Z;Z,Z) = beta(Z,Z,Z)
@ B-freq = 0.019867  C-freq = 0.079467     beta(X;Z,Z) = beta(X,Z,Z)
@ B-freq = 0.019867  C-freq = 0.079467     beta(Y;Z,Z) = beta(Y,Z,Z)
@ B-freq = 0.019867  C-freq = 0.079467     beta(Z;Z,Z) = beta(Z,Z,Z)
@ B-freq = 0.039733  C-freq = 0.079467     beta(X;Z,Z) = beta(X,Z,Z)
@ B-freq = 0.039733  C-freq = 0.079467     beta(Y;Z,Z) = beta(Y,Z,Z)
@ B-freq = 0.039733  C-freq = 0.079467     beta(Z;Z,Z) = beta(Z,Z,Z)
@ B-freq = 0.059600  C-freq = 0.079467     beta(X;Z,Z) = beta(X,Z,Z)
@ B-freq = 0.059600  C-freq = 0.079467     beta(Y;Z,Z) = beta(Y,Z,Z)
@ B-freq = 0.059600  C-freq = 0.079467     beta(Z;Z,Z) = beta(Z,Z,Z)
@ B-freq = 0.079467  C-freq = 0.079467     beta(X;Z,Z) =      0.00000000
@ B-freq = 0.079467  C-freq = 0.079467     beta(Y;Z,Z) =      0.00081679
@ B-freq = 0.079467  C-freq = 0.079467     beta(Z;Z,Z) =      9.07755393

  Total CPU  time used in RESPONSE: 11 minutes 52 seconds
  Total wall time used in RESPONSE: 11 minutes 53 seconds


                   .-------------------------------------------.
                   | End of Dynamic Property Section (RESPONS) |
                   `-------------------------------------------'

  Total CPU  time used in DALTON: 12 minutes 20 seconds
  Total wall time used in DALTON: 12 minutes 22 seconds

 
     Date and time (Linux)  : Thu Sep  7 21:45:46 2023
     Host name              : sn-mem                                  
