

     ************************************************************************
     *************** Dalton - An Electronic Structure Program ***************
     ************************************************************************

    This is output from DALTON release Dalton2020.0 (2020)
         ( Web site: http://daltonprogram.org )

   ----------------------------------------------------------------------------

    NOTE:
     
    Dalton is an experimental code for the evaluation of molecular
    properties using (MC)SCF, DFT, CI, and CC wave functions.
    The authors accept no responsibility for the performance of
    the code or for the correctness of the results.
     
    The code (in whole or part) is provided under a licence and
    is not to be reproduced for further distribution without
    the written permission of the authors or their representatives.
     
    See the home page "http://daltonprogram.org" for further information.
     
    If results obtained with this code are published,
    the appropriate citations would be both of:
     
       K. Aidas, C. Angeli, K. L. Bak, V. Bakken, R. Bast,
       L. Boman, O. Christiansen, R. Cimiraglia, S. Coriani,
       P. Dahle, E. K. Dalskov, U. Ekstroem,
       T. Enevoldsen, J. J. Eriksen, P. Ettenhuber, B. Fernandez,
       L. Ferrighi, H. Fliegl, L. Frediani, K. Hald, A. Halkier,
       C. Haettig, H. Heiberg, T. Helgaker, A. C. Hennum,
       H. Hettema, E. Hjertenaes, S. Hoest, I.-M. Hoeyvik,
       M. F. Iozzi, B. Jansik, H. J. Aa. Jensen, D. Jonsson,
       P. Joergensen, J. Kauczor, S. Kirpekar,
       T. Kjaergaard, W. Klopper, S. Knecht, R. Kobayashi, H. Koch,
       J. Kongsted, A. Krapp, K. Kristensen, A. Ligabue,
       O. B. Lutnaes, J. I. Melo, K. V. Mikkelsen, R. H. Myhre,
       C. Neiss, C. B. Nielsen, P. Norman, J. Olsen,
       J. M. H. Olsen, A. Osted, M. J. Packer, F. Pawlowski,
       T. B. Pedersen, P. F. Provasi, S. Reine, Z. Rinkevicius,
       T. A. Ruden, K. Ruud, V. Rybkin, P. Salek, C. C. M. Samson,
       A. Sanchez de Meras, T. Saue, S. P. A. Sauer,
       B. Schimmelpfennig, K. Sneskov, A. H. Steindal,
       K. O. Sylvester-Hvid, P. R. Taylor, A. M. Teale,
       E. I. Tellgren, D. P. Tew, A. J. Thorvaldsen, L. Thoegersen,
       O. Vahtras, M. A. Watson, D. J. D. Wilson, M. Ziolkowski
       and H. Agren,
       "The Dalton quantum chemistry program system",
       WIREs Comput. Mol. Sci. 2014, 4:269–284 (doi: 10.1002/wcms.1172)
     
    and
     
       Dalton, a molecular electronic structure program,
       Release Dalton2020.0 (2020), see http://daltonprogram.org
   ----------------------------------------------------------------------------

    Authors in alphabetical order (Major contribution(s) in parenthesis):

  Kestutis Aidas,           Vilnius University,           Lithuania   (QM/MM)
  Celestino Angeli,         University of Ferrara,        Italy       (NEVPT2)
  Keld L. Bak,              UNI-C,                        Denmark     (AOSOPPA, non-adiabatic coupling, magnetic properties)
  Vebjoern Bakken,          University of Oslo,           Norway      (DALTON; geometry optimizer, symmetry detection)
  Radovan Bast,             UiT The Arctic U. of Norway,  Norway      (DALTON installation and execution frameworks)
  Pablo Baudin,             University of Valencia,       Spain       (Cholesky excitation energies)
  Linus Boman,              NTNU,                         Norway      (Cholesky decomposition and subsystems)
  Bruno N. Cabral Tenorio,  Technical Univ. of Denmark,   Denmark     (Lanczos-based CC methods)
  Ove Christiansen,         Aarhus University,            Denmark     (CC module)
  Renzo Cimiraglia,         University of Ferrara,        Italy       (NEVPT2)
  Sonia Coriani,            Technical Univ. of Denmark,   Denmark     (CC and RESPONS modules)
  Janusz Cukras,            University of Warsaw,         Poland      (MChD in RESPONS)
  Paal Dahle,               University of Oslo,           Norway      (Parallelization)
  Erik K. Dalskov,          UNI-C,                        Denmark     (SOPPA)
  Thomas Enevoldsen,        Univ. of Southern Denmark,    Denmark     (SOPPA)
  Janus J. Eriksen,         Aarhus University,            Denmark     (Polarizable embedding, TDA)
  Rasmus Faber,             Technical Univ. of Denmark,   Denmark     (Vib.avg. NMR w. SOPPA, parallel AO-SOPPA, CVS-CC and EOMCC)
  Tobias Fahleson,          KTH Stockholm,                Sweden      (Damped cubic response)
  Berta Fernandez,          U. of Santiago de Compostela, Spain       (Doublet spin, ESR in RESPONS)
  Lara Ferrighi,            Aarhus University,            Denmark     (PCM Cubic response)
  Heike Fliegl,             University of Oslo,           Norway      (CCSD(R12))
  Luca Frediani,            UiT The Arctic U. of Norway,  Norway      (PCM)
  Emmanuel Fromager,        Univ. Strasbourg,             France      (MC-srDFT)
  Bin Gao,                  UiT The Arctic U. of Norway,  Norway      (Gen1Int library)
  Andre S. P. Gomes,        CNRS/Universite de Lille,     France      (Frozen density embedding)
  Christof Haettig,         Ruhr-University Bochum,       Germany     (CC module)
  Kasper Hald,              Aarhus University,            Denmark     (CC module)
  Asger Halkier,            Aarhus University,            Denmark     (CC module)
  Frederik Beyer Hansen,    University of Copenhagen,     Denmark     (Parallel AO-SOPPA)
  Erik D. Hedegaard,        Univ. of Southern Denmark,    Denmark     (Polarizable embedding, QM/MM, and MC-srDFT)
  Hanne Heiberg,            University of Oslo,           Norway      (Geometry analysis, selected one-electron integrals)
  Trygve Helgaker,          University of Oslo,           Norway      (DALTON; ABACUS, ERI, DFT modules, London, and much more)
  Alf Christian Hennum,     University of Oslo,           Norway      (Parity violation)
  Hinne Hettema,            University of Auckland,       New Zealand (Quadratic response in RESPONS; SIRIUS supersymmetry)
  Eirik Hjertenaes,         NTNU,                         Norway      (Cholesky decomposition)
  Pi A. B. Haase,           University of Copenhagen,     Denmark     (Triplet AO-SOPPA)
  Maria Francesca Iozzi,    University of Oslo,           Norway      (RPA)
  Christoph Jacob           TU Braunschweig               Germany     (Frozen density embedding)
  Brano Jansik              Technical Univ. of Ostrava    Czech Rep.  (DFT cubic response)
  Hans Joergen Aa. Jensen,  Univ. of Southern Denmark,    Denmark     (DALTON; SIRIUS, RESPONS, ABACUS, MC-srDFT, and much more)
  Dan Jonsson,              UiT The Arctic U. of Norway,  Norway      (Cubic response in RESPONS module)
  Poul Joergensen,          Aarhus University,            Denmark     (RESPONS, ABACUS, and CC modules)
  Maciej Kaminski,          University of Warsaw,         Poland      (CPPh in RESPONS)
  Joanna Kauczor,           Linkoeping University,        Sweden      (Complex polarization propagator (CPP) module)
  Sheela Kirpekar,          Univ. of Southern Denmark,    Denmark     (Mass-velocity & Darwin integrals)
  Erik Kjellgren,           Univ. of Southern Denmark,    Denmark     (MC-srDFT)
  Wim Klopper,              KIT Karlsruhe,                Germany     (R12 code in CC, SIRIUS, and ABACUS modules)
  Stefan Knecht,            ETH Zurich,                   Switzerland (Parallel CI and MCSCF, MC-srDFT)
  Rika Kobayashi,           Australian National Univ.,    Australia   (DIIS in CC, London in MCSCF)
  Henrik Koch,              NTNU,                         Norway      (CC module, Cholesky decomposition)
  Jacob Kongsted,           Univ. of Southern Denmark,    Denmark     (Polarizable embedding, polarizable density embedding, QM/MM)
  Andrea Ligabue,           University of Modena,         Italy       (CTOCD, AOSOPPA)
  Nanna H. List             Univ. of Southern Denmark,    Denmark     (Polarizable embedding)
  Ola B. Lutnaes,           University of Oslo,           Norway      (DFT Hessian)
  Juan I. Melo,             University of Buenos Aires,   Argentina   (LRESC, Relativistic Effects on NMR Shieldings)
  Kurt V. Mikkelsen,        University of Copenhagen,     Denmark     (MC-SCRF and QM/MM)
  Rolf H. Myhre,            NTNU,                         Norway      (Subsystems and CC3)
  Christian Neiss,          Univ. Erlangen-Nuernberg,     Germany     (CCSD(R12))
  Christian B. Nielsen,     University of Copenhagen,     Denmark     (QM/MM)
  Patrick Norman,           KTH Stockholm,                Sweden      (Cubic response and complex frequency response in RESPONS)
  Jeppe Olsen,              Aarhus University,            Denmark     (SIRIUS CI/density modules)
  Jogvan Magnus H. Olsen,   Aarhus University,            Denmark     (Polarizable embedding and polarizable density embedding)
  Anders Osted,             Copenhagen University,        Denmark     (QM/MM)
  Martin J. Packer,         University of Sheffield,      UK          (SOPPA)
  Filip Pawlowski,          Kazimierz Wielki University,  Poland      (CC3)
  Morten N. Pedersen,       Univ. of Southern Denmark,    Denmark     (Polarizable embedding)
  Thomas B. Pedersen,       University of Oslo,           Norway      (Cholesky decomposition)
  Patricio F. Provasi,      University of Northeastern,   Argentina   (Analysis of coupling constants in localized orbitals)
  Peter Reinholdt,          Univ. of Southern Denmark,    Denmark     (Polarizable embedding and polarizable density embedding)
  Zilvinas Rinkevicius,     KTH Stockholm,                Sweden      (open-shell DFT, ESR)
  Elias Rudberg,            KTH Stockholm,                Sweden      (DFT grid and basis info)
  Torgeir A. Ruden,         University of Oslo,           Norway      (Numerical derivatives in ABACUS)
  Kenneth Ruud,             UiT The Arctic U. of Norway,  Norway      (DALTON; ABACUS magnetic properties and much more)
  Pawel Salek,              KTH Stockholm,                Sweden      (DALTON; DFT code)
  Claire C. M. Samson       University of Karlsruhe       Germany     (Boys localization, r12 integrals in ERI)
  Alfredo Sanchez de Meras, University of Valencia,       Spain       (CC module, Cholesky decomposition)
  Trond Saue,               Paul Sabatier University,     France      (direct Fock matrix construction)
  Stephan P. A. Sauer,      University of Copenhagen,     Denmark     (SOPPA(CCSD), SOPPA prop., AOSOPPA, vibrational g-factors)
  Bernd Schimmelpfennig,    Forschungszentrum Karlsruhe,  Germany     (AMFI module)
  Anna K. Schnack-Petersen, University of Copenhagen,     Denmark     (RPA(D) and HRPA(D) properties in AOSOPPA)
  Kristian Sneskov,         Aarhus University,            Denmark     (Polarizable embedding, QM/MM)
  Arnfinn H. Steindal,      UiT The Arctic U. of Norway,  Norway      (parallel QM/MM, polarizable embedding)
  Casper Steinmann,         Aalborg University,           Denmark     (QFIT, polarizable embedding)
  K. O. Sylvester-Hvid,     University of Copenhagen,     Denmark     (MC-SCRF)
  Peter R. Taylor,          VLSCI/Univ. of Melbourne,     Australia   (Symmetry handling ABACUS, integral transformation)
  Andrew M. Teale,          University of Nottingham,     England     (DFT-AC, DFT-D)
  David P. Tew,             University of Bristol,        England     (CCSD(R12))
  Julien Toulouse,          Sorbonne Univ.,               France      (MC-srDFT)
  Olav Vahtras,             KTH Stockholm,                Sweden      (Triplet response, spin-orbit, ESR, TDDFT, open-shell DFT)
  Lucas Visscher,           Vrije Universiteit Amsterdam, Netherlands (Frozen density embedding)
  David J. Wilson,          La Trobe University,          Australia   (DFT Hessian and DFT magnetizabilities)
  Hans Agren,               KTH Stockholm,                Sweden      (SIRIUS module, RESPONS, MC-SCRF solvation)
 --------------------------------------------------------------------------------

     Date and time (Linux)  : Sun Nov 26 17:47:55 2023
     Host name              : sn-mem                                  

 * Work memory size             :    64000000 =  488.28 megabytes.

 * Directories for basis set searches:
   1) /gpfs/projects/rjh/adrian/beta_paper_database/dalton/hf/H2O/dipole
   2) /gpfs/projects/rjh/adrian/dalton/build/basis


Compilation information
-----------------------

 Who compiled             | ahurtado
 Host                     | sn-mem
 System                   | Linux-3.10.0-1160.24.1.el7.x86_64
 CMake generator          | Unix Makefiles
 Processor                | x86_64
 64-bit integers          | OFF
 MPI                      | ON
 Fortran compiler         | /gpfs/software/intel/oneAPI/2021_4/mpi/2021.4.0/bi
                          | n/mpif90
 Fortran compiler version | GNU Fortran (GCC) 11.2.0
 C compiler               | /gpfs/software/intel/oneAPI/2021_4/mpi/2021.4.0/bi
                          | n/mpicc
 C compiler version       | gcc (GCC) 11.2.0
 C++ compiler             | /gpfs/software/intel/oneAPI/2021_4/mpi/2021.4.0/bi
                          | n/mpicxx
 C++ compiler version     | unknown
 BLAS                     | /gpfs/software/intel/oneAPI/2021_4/mkl/2021.4.0/li
                          | b/intel64/libmkl_gf_lp64.so;/gpfs/software/intel/o
                          | neAPI/2021_4/mkl/2021.4.0/lib/intel64/libmkl_seque
                          | ntial.so;/gpfs/software/intel/oneAPI/2021_4/mkl/20
                          | 21.4.0/lib/intel64/libmkl_core.so;/usr/lib64/libpt
                          | hread.so;/usr/lib64/libm.so
 LAPACK                   | /gpfs/software/intel/oneAPI/2021_4/mkl/2021.4.0/li
                          | b/intel64/libmkl_lapack95_lp64.a;/gpfs/software/in
                          | tel/oneAPI/2021_4/mkl/2021.4.0/lib/intel64/libmkl_
                          | gf_lp64.so
 Static linking           | OFF
 Last Git revision        | 66052b3af5ea7225e31178bf9a8b031913c72190
 Git branch               | (HEAD detached at Dalton2020.0)
 Configuration time       | 2023-01-11 13:33:37.731835

 * MPI parallel run using 3 processes.


   Content of the .dal input file
 ----------------------------------

**DALTON INPUT
.RUN RESPONSE
.DIRECT
**WAVE FUNCTIONS
.HF
**PROPERTIES
**RESPONSE
*QUADRA
.DIPLEN
.FREQUENCIES
5
0.0 0.0198666875 0.039733375 0.0596000625 0.07946675
**END OF DALTON INPUT


   Content of the .mol file
 ----------------------------

BASIS
t-aug-cc-pVTZ
blah
blah
Atomtype=2 Angstrom Charge=0 Nosymmmetry
Charge=8 Atoms=1
O_a 0.000000000000 0.000000000000 0.117299997610
Charge=1 Atoms=2
H_a 0.000000000000 0.757199998838 -0.469200001024
H_b 0.000000000000 -0.757199998838 -0.469200001024


       *******************************************************************
       *********** Output from DALTON general input processing ***********
       *******************************************************************

 --------------------------------------------------------------------------------
   Overall default print level:    0
   Print level for DALTON.STAT:    1

    Parallel calculation using MPI
    AO-direct calculation (in sections where implemented)
    HERMIT 1- and 2-electron integral sections will be executed
    "Old" integral transformation used (limited to max 255 basis functions)
    Wave function sections will be executed (SIRIUS module)
    Dynamic molecular response properties section will be executed (RESPONSE module)
 --------------------------------------------------------------------------------


   ****************************************************************************
   *************** Output of molecule and basis set information ***************
   ****************************************************************************


    The two title cards from your ".mol" input:
    ------------------------------------------------------------------------
 1: blah                                                                    
 2: blah                                                                    
    ------------------------------------------------------------------------

  Coordinates are entered in Angstrom and converted to atomic units.
          - Conversion factor : 1 bohr = 0.52917721 A

  Atomic type no.    1
  --------------------
  Nuclear charge:   8.00000
  Number of symmetry independent centers:    1
  Number of basis sets to read;    2
  Basis set file used for this atomic type with Z =   8 :
     "/gpfs/projects/rjh/adrian/dalton/build/basis/aug-cc-pVTZ"

  Atomic type no.    2
  --------------------
  Nuclear charge:   1.00000
  Number of symmetry independent centers:    2
  Number of basis sets to read;    2
  Basis set file used for this atomic type with Z =   1 :
     "/gpfs/projects/rjh/adrian/dalton/build/basis/aug-cc-pVTZ"


                         SYMGRP: Point group information
                         -------------------------------

@    Point group: C1 


                                 Isotopic Masses
                                 ---------------

                           O_a        15.994915
                           H_a         1.007825
                           H_b         1.007825

                       Total mass:    18.010565 amu
                       Natural abundance:  99.730 %

 Center-of-mass coordinates (a.u.):    0.000000    0.000000    0.097627
 Center-of-mass coordinates (Angs):    0.000000    0.000000    0.051662


  Atoms and basis sets
  --------------------

  Number of atom types :    2
  Total number of atoms:    3

  Basis set used is "t-aug-cc-pVTZ" from the basis set library.

  label    atoms   charge   prim   cont     basis
  ----------------------------------------------------------------------
  O_          1    8.0000    90    78      [13s8p5d4f|7s6p5d4f]                               
  H_          2    1.0000    43    41      [8s5p4d|6s5p4d]                                    
  ----------------------------------------------------------------------
  total:      3   10.0000   176   160
  ----------------------------------------------------------------------
  Spherical harmonic basis used.

  Threshold for neglecting AO integrals:  1.00D-12


  Cartesian Coordinates (a.u.)
  ----------------------------

  Total number of coordinates:    9
  O_a     :     1  x   0.0000000000    2  y   0.0000000000    3  z   0.2216648699
  H_a     :     4  x   0.0000000000    5  y   1.4309006196    6  z  -0.8866594998
  H_b     :     7  x   0.0000000000    8  y  -1.4309006196    9  z  -0.8866594998


   Interatomic separations (in Angstrom):
   --------------------------------------

            O_a         H_a         H_b   
            ------      ------      ------
 O_a   :    0.000000
 H_a   :    0.957776    0.000000
 H_b   :    0.957776    1.514400    0.000000


  Max    interatomic separation is    1.5144 Angstrom (    2.8618 Bohr)
  between atoms    3 and    2, "H_b   " and "H_a   ".

  Min HX interatomic separation is    0.9578 Angstrom (    1.8099 Bohr)


  Bond distances (Angstrom):
  --------------------------

                  atom 1     atom 2       distance
                  ------     ------       --------
  bond distance:  H_a        O_a          0.957776
  bond distance:  H_b        O_a          0.957776


  Bond angles (degrees):
  ----------------------

                  atom 1     atom 2     atom 3         angle
                  ------     ------     ------         -----
  bond angle:     H_a        O_a        H_b          104.480




 Principal moments of inertia (u*A**2) and principal axes
 --------------------------------------------------------

   IA       0.615752          0.000000    1.000000    0.000000
   IB       1.155677          0.000000    0.000000    1.000000
   IC       1.771429          1.000000    0.000000    0.000000


 Rotational constants
 --------------------

@    The molecule is planar.

               A                   B                   C

         820751.0438         437301.3971         285294.6081 MHz
           27.377308           14.586804            9.516404 cm-1


@  Nuclear repulsion energy :    9.189533777587 Hartree


                     .---------------------------------------.
                     | Starting in Integral Section (HERMIT) |
                     `---------------------------------------'



 ***************************************************************************************
 ****************** Output from **INTEGRALS input processing (HERMIT) ******************
 ***************************************************************************************


 - Using defaults, no **INTEGRALS input found

 Default print level:        1

 Calculation of one-electron Hamiltonian integrals.

 Center of mass  (bohr):      0.000000000000      0.000000000000      0.097626894688
 Operator center (bohr):      0.000000000000      0.000000000000      0.000000000000
 Gauge origin    (bohr):      0.000000000000      0.000000000000      0.000000000000
 Dipole origin   (bohr):      0.000000000000      0.000000000000      0.000000000000


     ************************************************************************
     ************************** Output from HERINT **************************
     ************************************************************************



                      Nuclear contribution to dipole moments
                      --------------------------------------

                 au               Debye          C m (/(10**-30)

      x      0.00000000         0.00000000         0.00000000
      y      0.00000000         0.00000000         0.00000000
      z     -0.00000004        -0.00000010        -0.00000034


  Time used in GABGEN     is       0.13 seconds
  Total CPU  time used in HERMIT:   0.23 seconds
  Total wall time used in HERMIT:   0.24 seconds


                        .----------------------------------.
                        | End of Integral Section (HERMIT) |
                        `----------------------------------'



                   .--------------------------------------------.
                   | Starting in Wave Function Section (SIRIUS) |
                   `--------------------------------------------'



@ Primary orbitals are deleted during canonical orthonormalization
@   because of detected numerical linear dependence or too large coefficients.
@ Eigenvalue threshold for num. lin. dep. =  1.00D-06

@   1 MO components are deleted in symmetry    1
 Overlap eigenvalues of the deleted orbitals:
  5.64D-07

 Max MO coeff. of last deleted MO & limit:  9.31D+02  1.00D+03

WARNING: Orbitals have been deleted because of numerical
   linear dependence although not requested in input.

 *** Output from Huckel module :

     Using EWMO model:          T
     Using EHT  model:          F
     Number of Huckel orbitals each symmetry:    7

 EWMO - Energy Weighted Maximum Overlap - is a Huckel type method,
        which normally is better than Extended Huckel Theory.
 Reference: Linderberg and Ohrn, Propagators in Quantum Chemistry (Wiley, 1973)

 Huckel EWMO eigenvalues for symmetry :  1
          -20.684959      -1.611341      -0.778168      -0.688462      -0.616200
           -0.232449      -0.168322

 **********************************************************************
 *SIRIUS* a direct, restricted step, second order MCSCF program       *
 **********************************************************************

 
     Date and time (Linux)  : Sun Nov 26 17:47:55 2023
     Host name              : sn-mem                                  

 Title lines from ".mol" input file:
     blah                                                                    
     blah                                                                    

 Print level on unit LUPRI =   2 is   0
 Print level on unit LUW4  =   2 is   5

@    Restricted, closed shell Hartree-Fock calculation.

@    Time-dependent Hartree-Fock calculation (random phase approximation).
 Fock matrices are calculated directly and in parallel without use of integrals on disk.

 Initial molecular orbitals are obtained according to
 ".MOSTART EWMO  " input option

     Wave function specification
     ============================
@    Wave function type        --- HF ---
@    Number of closed shell electrons          10
@    Number of electrons in active shells       0
@    Total charge of the molecule               0

@    Spin multiplicity and 2 M_S                1         0
@    Total number of symmetries                 1 (point group: C1 )
@    Reference state symmetry                   1 (irrep name : A  )

     Orbital specifications
     ======================
@    Abelian symmetry species          All |    1
@                                          |  A  
                                       --- |  ---
@    Occupied SCF orbitals               5 |    5
@    Secondary orbitals                154 |  154
@    Total number of orbitals          159 |  159
@    Number of basis functions         160 |  160

     Optimization information
     ========================
@    Number of configurations                 1
@    Number of orbital rotations            770
     ------------------------------------------
@    Total number of variables              771

     Maximum number of Fock   iterations      0
     Maximum number of DIIS   iterations     60
     Maximum number of QC-SCF iterations     60
     Threshold for SCF convergence     1.00D-05


 ***********************************************
 ***** DIIS acceleration of SCF iterations *****
 ***********************************************

 C1-DIIS algorithm; max error vectors =    8

 Iter      Total energy        Error norm    Delta(E)  DIIS dim.
 -----------------------------------------------------------------------------
   1  Screening settings (-IFTHRS, JTDIIS, DIFDEN, times)   -8    1    T  1.74D+00  1.75D+00
@  1    -75.8736932963        1.83155D+00   -7.59D+01    1
      Virial theorem: -V/T =      1.996680
@    MULPOP   O_a    -0.59; H_a     0.29; H_b     0.29; 
   1  Level shift: doubly occupied orbital energies shifted by -2.00D-01
 -----------------------------------------------------------------------------
   2  Screening settings (-IFTHRS, JTDIIS, DIFDEN, times)   -8    2    T  1.76D+00  1.76D+00
@  2    -76.0494661428        3.98921D-01   -1.76D-01    2
      Virial theorem: -V/T =      2.003954
@    MULPOP   O_a    -0.52; H_a     0.26; H_b     0.26; 
   2  Level shift: doubly occupied orbital energies shifted by -5.00D-02
 -----------------------------------------------------------------------------
   3  Screening settings (-IFTHRS, JTDIIS, DIFDEN, times)   -8    3    T  1.75D+00  1.75D+00
@  3    -76.0593163111        1.11498D-01   -9.85D-03    3
      Virial theorem: -V/T =      2.000379
@    MULPOP   O_a    -0.50; H_a     0.25; H_b     0.25; 
   3  Level shift: doubly occupied orbital energies shifted by -2.50D-02
 -----------------------------------------------------------------------------
   4  Screening settings (-IFTHRS, JTDIIS, DIFDEN, times)  -12    4    F  1.72D+00  1.72D+00
@  4    -76.0604794558        5.32594D-02   -1.16D-03    4
      Virial theorem: -V/T =      2.002228
@    MULPOP   O_a    -0.49; H_a     0.25; H_b     0.25; 
   4  Level shift: doubly occupied orbital energies shifted by -1.25D-02
 -----------------------------------------------------------------------------
   5  Screening settings (-IFTHRS, JTDIIS, DIFDEN, times)  -12    5    T  1.74D+00  1.75D+00
@  5    -76.0606328671        1.10956D-02   -1.53D-04    5
      Virial theorem: -V/T =      2.001262
@    MULPOP   O_a    -0.51; H_a     0.25; H_b     0.25; 
 -----------------------------------------------------------------------------
   6  Screening settings (-IFTHRS, JTDIIS, DIFDEN, times)  -12    6    T  1.75D+00  1.75D+00
@  6    -76.0606555128        2.62605D-03   -2.26D-05    6
      Virial theorem: -V/T =      2.001344
@    MULPOP   O_a    -0.51; H_a     0.25; H_b     0.25; 
 -----------------------------------------------------------------------------
   7  Screening settings (-IFTHRS, JTDIIS, DIFDEN, times)  -12    7    T  1.75D+00  1.75D+00
@  7    -76.0606568434        4.05535D-04   -1.33D-06    7
      Virial theorem: -V/T =      2.001368
@    MULPOP   O_a    -0.51; H_a     0.25; H_b     0.25; 
 -----------------------------------------------------------------------------
   8  Screening settings (-IFTHRS, JTDIIS, DIFDEN, times)  -12    8    T  1.75D+00  1.75D+00
@  8    -76.0606568708        6.02112D-05   -2.73D-08    8
      Virial theorem: -V/T =      2.001369
@    MULPOP   O_a    -0.51; H_a     0.25; H_b     0.25; 
 -----------------------------------------------------------------------------
   9  Screening settings (-IFTHRS, JTDIIS, DIFDEN, times)  -12    9    T  1.75D+00  1.75D+00
@  9    -76.0606568713        1.08001D-05   -5.02D-10    8
      Virial theorem: -V/T =      2.001370
@    MULPOP   O_a    -0.51; H_a     0.25; H_b     0.25; 
 -----------------------------------------------------------------------------
  10  Screening settings (-IFTHRS, JTDIIS, DIFDEN, times)  -12   10    T  1.75D+00  1.76D+00
@ 10    -76.0606568713        2.27952D-06   -1.30D-11    8

@ *** DIIS converged in  10 iterations !
@     Converged SCF energy, gradient:    -76.060656871297    2.28D-06
    - total time used in SIRFCK :              0.00 seconds


 *** SCF orbital energy analysis ***

 Only the 20 lowest virtual orbital energies printed in each symmetry.

 Number of electrons :   10
 Orbital occupations :    5

 Sym       Hartree-Fock orbital energies

1 A     -20.56715644    -1.35326690    -0.71741464    -0.58485082    -0.51028771
          0.00149173     0.00310566     0.00766458     0.00848522     0.00983032
          0.01153033     0.01895739     0.01923082     0.01942167     0.02294684
          0.02448669     0.02842297     0.02914239     0.04025711     0.04042931
          0.05078901     0.05146798     0.05189562     0.05207347     0.05338026

    E(LUMO) :     0.00149173 au (symmetry 1)
  - E(HOMO) :    -0.51028771 au (symmetry 1)
  ------------------------------------------
    gap     :     0.51177943 au

 --- Writing SIRIFC interface file

 CPU and wall time for SCF :      17.651      17.704


                       .-----------------------------------.
                       | --- Final results from SIRIUS --- |
                       `-----------------------------------'


@    Spin multiplicity:           1
@    Spatial symmetry:            1 ( irrep  A   in C1  )
@    Total charge of molecule:    0

@    Final HF energy:             -76.060656871297                 
@    Nuclear repulsion:             9.189533777587
@    Electronic energy:           -85.250190648884

@    Final gradient norm:           0.000002279518

 
     Date and time (Linux)  : Sun Nov 26 17:48:13 2023
     Host name              : sn-mem                                  

File label for MO orbitals:  26Nov23   FOCKDIIS

 (Only coefficients > 0.0100 are printed.)

 Molecular orbitals for symmetry species 1  (A  )
 ------------------------------------------------

    Orbital         1        2        3        4        5        6        7
   1 O_a :1s    -0.9988   0.0084   0.0000  -0.0043  -0.0000  -0.0003   0.0000
   2 O_a :1s     0.0026  -0.8675  -0.0000  -0.3104  -0.0000  -0.0173   0.0000
   4 O_a :1s     0.0005   0.0294   0.0000  -0.2450   0.0000  -0.0332   0.0000
   5 O_a :1s    -0.0027  -0.0688   0.0000  -0.0895  -0.0000  -0.2209   0.0000
   6 O_a :1s     0.0024  -0.0489  -0.0000   0.0162  -0.0000  -2.1986  -0.0000
   7 O_a :1s     0.0003   0.0300   0.0000  -0.0160   0.0000   4.0543   0.0000
   8 O_a :2px   -0.0000  -0.0000   0.0000  -0.0000   0.9153  -0.0000   0.0000
   9 O_a :2py    0.0000   0.0000  -0.7350  -0.0000   0.0000   0.0000   0.0033
  10 O_a :2pz    0.0048   0.1154   0.0000  -0.8079  -0.0000   0.0147   0.0000
  12 O_a :2py   -0.0000  -0.0000   0.0213   0.0000   0.0000  -0.0000   0.0008
  13 O_a :2pz   -0.0039   0.0068  -0.0000   0.0160   0.0000   0.0010  -0.0000
  14 O_a :2px    0.0000   0.0000  -0.0000   0.0000   0.0371   0.0000  -0.0000
  15 O_a :2py   -0.0000  -0.0000   0.1130   0.0000   0.0000   0.0000   0.0324
  16 O_a :2pz   -0.0020  -0.0304  -0.0000   0.0790   0.0000  -0.0036  -0.0000
  17 O_a :2px   -0.0000  -0.0000   0.0000  -0.0000   0.0966  -0.0000   0.0000
  18 O_a :2py   -0.0000  -0.0000   0.0229   0.0000  -0.0000   0.0000   0.1776
  19 O_a :2pz   -0.0002  -0.0075  -0.0000  -0.0189  -0.0000  -0.0595   0.0000
  20 O_a :2px   -0.0000  -0.0000   0.0000  -0.0000   0.0375  -0.0000   0.0000
  21 O_a :2py   -0.0000   0.0000   0.0002  -0.0000  -0.0000   0.0000   0.6016
  22 O_a :2pz   -0.0001  -0.0027   0.0000  -0.0081  -0.0000  -0.1107   0.0000
  24 O_a :2py   -0.0000   0.0000   0.0008   0.0000  -0.0000   0.0000   1.3074
  25 O_a :2pz   -0.0000  -0.0008  -0.0000  -0.0012  -0.0000  -0.4334   0.0000
  27 O_a :3d1-  -0.0000  -0.0000   0.0128   0.0000   0.0000   0.0000  -0.0000
  32 O_a :3d1-   0.0000   0.0000   0.0224  -0.0000  -0.0000  -0.0000  -0.0013
  33 O_a :3d0    0.0001  -0.0035   0.0000   0.0165   0.0000  -0.0002  -0.0000
  34 O_a :3d1+   0.0000   0.0000  -0.0000   0.0000  -0.0150   0.0000  -0.0000
  37 O_a :3d1-   0.0000   0.0000  -0.0198  -0.0000  -0.0000  -0.0000  -0.0130
  40 O_a :3d2+   0.0003  -0.0087  -0.0000   0.0234  -0.0000  -0.0012  -0.0000
  42 O_a :3d1-   0.0000   0.0000  -0.0075  -0.0000   0.0000  -0.0000  -0.0345
  43 O_a :3d0    0.0008   0.0013  -0.0000   0.0150  -0.0000   0.0107  -0.0000
  44 O_a :3d1+  -0.0000  -0.0000   0.0000  -0.0000  -0.0276  -0.0000   0.0000
  47 O_a :3d1-   0.0000   0.0000  -0.0119  -0.0000   0.0000  -0.0000  -0.0457
  48 O_a :3d0   -0.0002  -0.0029   0.0000   0.0042   0.0000   0.0432  -0.0000
  50 O_a :3d2+  -0.0004  -0.0058   0.0000  -0.0005   0.0000   0.0275  -0.0000
  79 H_a :1s    -0.0021  -0.3724  -0.5888   0.3562   0.0000   0.0014   0.0015
  80 H_a :1s    -0.0000   0.1022   0.0485   0.0300  -0.0000  -0.0037  -0.0201
  81 H_a :1s     0.0024   0.1669   0.2284  -0.0703  -0.0000   0.0503  -0.0507
  82 H_a :1s    -0.0012   0.0288   0.2800  -0.0062   0.0000   0.9974   0.1478
  83 H_a :1s    -0.0002  -0.0123  -0.0281   0.0069  -0.0000  -2.0817   0.1087
  84 H_a :1s     0.0000   0.0002   0.0006  -0.0001   0.0000   0.6657 -12.1966
  85 H_a :2px    0.0000   0.0000  -0.0000   0.0000   0.0110   0.0000  -0.0000
  86 H_a :2py    0.0001   0.0109   0.0100  -0.0102  -0.0000   0.0006   0.0001
  87 H_a :2pz   -0.0001  -0.0077  -0.0130  -0.0010   0.0000  -0.0004   0.0001
  88 H_a :2px   -0.0000  -0.0000   0.0000  -0.0000   0.0260  -0.0000   0.0000
  89 H_a :2py    0.0008   0.0079   0.0193  -0.0354   0.0000   0.0009   0.0018
  90 H_a :2pz   -0.0004  -0.0056  -0.0268   0.0056  -0.0000   0.0017  -0.0034
  92 H_a :2py    0.0007  -0.0174  -0.0432   0.0058  -0.0000  -0.0157  -0.0393
  93 H_a :2pz    0.0007   0.0149   0.0198  -0.0064   0.0000   0.0352  -0.0001
  94 H_a :2px    0.0000   0.0000  -0.0000   0.0000  -0.0278   0.0000  -0.0000
  95 H_a :2py   -0.0005  -0.0205  -0.0706   0.0057  -0.0000  -0.0637  -0.2518
  96 H_a :2pz   -0.0002   0.0071   0.0423   0.0039   0.0000   0.2128  -0.0087
  98 H_a :2py    0.0001   0.0003   0.0030  -0.0001  -0.0000   0.1147  -0.5950
  99 H_a :2pz   -0.0000  -0.0004   0.0036   0.0021   0.0000  -0.0281  -0.2555
 111 H_a :3d1-  -0.0002  -0.0034  -0.0106   0.0003   0.0000  -0.0125  -0.0038
 112 H_a :3d0   -0.0001  -0.0001  -0.0006  -0.0059   0.0000   0.0106  -0.0063
 114 H_a :3d2+  -0.0001  -0.0026  -0.0075   0.0051  -0.0000  -0.0052  -0.0188
 116 H_a :3d1-  -0.0001  -0.0018  -0.0011  -0.0000  -0.0000  -0.0142  -0.0155
 117 H_a :3d0    0.0000   0.0002   0.0024   0.0001  -0.0000   0.0155  -0.0298
 119 H_a :3d2+   0.0001  -0.0000  -0.0029   0.0004  -0.0000  -0.0057  -0.0380
 120 H_b :1s    -0.0021  -0.3724   0.5888   0.3562   0.0000   0.0014  -0.0015
 121 H_b :1s    -0.0000   0.1022  -0.0485   0.0300  -0.0000  -0.0037   0.0201
 122 H_b :1s     0.0024   0.1669  -0.2284  -0.0703  -0.0000   0.0503   0.0507
 123 H_b :1s    -0.0012   0.0288  -0.2800  -0.0062   0.0000   0.9974  -0.1478
 124 H_b :1s    -0.0002  -0.0123   0.0281   0.0069  -0.0000  -2.0817  -0.1087
 125 H_b :1s     0.0000   0.0002  -0.0006  -0.0001  -0.0000   0.6657  12.1966
 126 H_b :2px    0.0000   0.0000  -0.0000   0.0000   0.0110   0.0000  -0.0000
 127 H_b :2py   -0.0001  -0.0109   0.0100   0.0102   0.0000  -0.0006   0.0001
 128 H_b :2pz   -0.0001  -0.0077   0.0130  -0.0010   0.0000  -0.0004  -0.0001
 129 H_b :2px   -0.0000  -0.0000   0.0000  -0.0000   0.0260  -0.0000   0.0000
 130 H_b :2py   -0.0008  -0.0079   0.0193   0.0354  -0.0000  -0.0009   0.0018
 131 H_b :2pz   -0.0004  -0.0056   0.0268   0.0056   0.0000   0.0017   0.0034
 133 H_b :2py   -0.0007   0.0174  -0.0432  -0.0058   0.0000   0.0157  -0.0393
 134 H_b :2pz    0.0007   0.0149  -0.0198  -0.0064   0.0000   0.0352   0.0001
 135 H_b :2px    0.0000   0.0000  -0.0000   0.0000  -0.0278   0.0000  -0.0000
 136 H_b :2py    0.0005   0.0205  -0.0706  -0.0057   0.0000   0.0637  -0.2518
 137 H_b :2pz   -0.0002   0.0071  -0.0423   0.0039   0.0000   0.2128   0.0087
 139 H_b :2py   -0.0001  -0.0003   0.0030   0.0001   0.0000  -0.1147  -0.5950
 140 H_b :2pz   -0.0000  -0.0004  -0.0036   0.0021   0.0000  -0.0281   0.2555
 152 H_b :3d1-   0.0002   0.0034  -0.0106  -0.0003  -0.0000   0.0125  -0.0038
 153 H_b :3d0   -0.0001  -0.0001   0.0006  -0.0059   0.0000   0.0106   0.0063
 155 H_b :3d2+  -0.0001  -0.0026   0.0075   0.0051  -0.0000  -0.0052   0.0188
 157 H_b :3d1-   0.0001   0.0018  -0.0011   0.0000   0.0000   0.0142  -0.0155
 158 H_b :3d0    0.0000   0.0002  -0.0024   0.0001  -0.0000   0.0155   0.0298
 160 H_b :3d2+   0.0001  -0.0000   0.0029   0.0004  -0.0000  -0.0057   0.0380

    Orbital         8        9       10       11       12       13       14
   2 O_a :1s     0.0249  -0.0000   0.0273   0.0000   0.0000  -0.0012  -0.0000
   4 O_a :1s    -0.0821   0.0000  -0.0541   0.0000  -0.0000  -0.0115   0.0000
   5 O_a :1s    -0.5431  -0.0000  -0.4625   0.0000   0.0000   0.1481   0.0000
   6 O_a :1s    -5.9156  -0.0000  -4.9666   0.0000   0.0000   0.2782   0.0000
   7 O_a :1s    13.8645   0.0000   9.9376   0.0000  -0.0000 -15.1773  -0.0000
   9 O_a :2py    0.0000   0.0000  -0.0000   0.0133  -0.0046   0.0000  -0.0000
  10 O_a :2pz   -0.0265  -0.0000  -0.0172   0.0000  -0.0000   0.0015  -0.0000
  14 O_a :2px   -0.0000  -0.0429  -0.0000  -0.0000   0.0000  -0.0000  -0.0000
  15 O_a :2py    0.0000   0.0000   0.0000  -0.0844  -0.0760   0.0000   0.0000
  16 O_a :2pz    0.0442   0.0000  -0.0466  -0.0000   0.0000   0.0252   0.0000
  17 O_a :2px    0.0000  -0.3182   0.0000   0.0000  -0.0000   0.0000  -0.0000
  18 O_a :2py    0.0000  -0.0000   0.0000  -0.4975  -0.2595  -0.0000   0.0000
  19 O_a :2pz    0.1633  -0.0000  -0.3473   0.0000   0.0000   0.1152  -0.0000
  20 O_a :2px    0.0000  -1.2812   0.0000   0.0000  -0.0000   0.0000  -0.0000
  21 O_a :2py    0.0000  -0.0000  -0.0000  -1.7546  -1.0742  -0.0000   0.0000
  22 O_a :2pz    0.9469  -0.0000  -1.0086   0.0000   0.0000   0.6281  -0.0000
  23 O_a :2px    0.0000  -2.8826   0.0000   0.0000  -0.0000   0.0000   0.0000
  24 O_a :2py    0.0000  -0.0000  -0.0000  -4.4046  -1.5244  -0.0000  -0.0000
  25 O_a :2pz    1.6009  -0.0000  -2.4751   0.0000   0.0000   0.6929  -0.0000
  36 O_a :3d2-   0.0000  -0.0000   0.0000   0.0000  -0.0000   0.0000   0.0335
  37 O_a :3d1-   0.0000  -0.0000  -0.0000   0.0300   0.0553   0.0000  -0.0000
  38 O_a :3d0   -0.0039   0.0000   0.0213  -0.0000  -0.0000  -0.0325  -0.0000
  39 O_a :3d1+   0.0000   0.0169   0.0000   0.0000  -0.0000   0.0000   0.0000
  40 O_a :3d2+   0.0097  -0.0000  -0.0082  -0.0000   0.0000  -0.0328  -0.0000
  41 O_a :3d2-   0.0000   0.0000   0.0000   0.0000  -0.0000   0.0000   0.1017
  42 O_a :3d1-   0.0000   0.0000  -0.0000   0.1236  -0.1262   0.0000   0.0000
  43 O_a :3d0    0.0152  -0.0000   0.0435  -0.0000  -0.0000  -0.0765  -0.0000
  44 O_a :3d1+   0.0000   0.0251   0.0000   0.0000  -0.0000   0.0000   0.0000
  45 O_a :3d2+   0.0211   0.0000  -0.0105  -0.0000   0.0000  -0.0964  -0.0000
  46 O_a :3d2-   0.0000   0.0000   0.0000   0.0000  -0.0000  -0.0000  -0.3279
  47 O_a :3d1-   0.0000   0.0000  -0.0000   0.1895  -0.3524   0.0000   0.0000
  48 O_a :3d0    0.1291   0.0000   0.1123  -0.0000   0.0000   0.0987  -0.0000
  49 O_a :3d1+  -0.0000  -0.0145  -0.0000  -0.0000   0.0000  -0.0000   0.0000
  50 O_a :3d2+   0.0355   0.0000   0.0580  -0.0000   0.0000   0.2586  -0.0000
  66 O_a :4f2-  -0.0000   0.0000  -0.0000  -0.0000   0.0000  -0.0000  -0.0173
  67 O_a :4f1-  -0.0000   0.0000   0.0000  -0.0022  -0.0129   0.0000   0.0000
  68 O_a :4f0    0.0016   0.0000   0.0004   0.0000  -0.0000   0.0148   0.0000
  70 O_a :4f2+  -0.0042   0.0000   0.0100   0.0000  -0.0000   0.0150   0.0000
  72 O_a :4f3-  -0.0000  -0.0000   0.0000  -0.0169   0.0999  -0.0000   0.0000
  74 O_a :4f1-  -0.0000  -0.0000   0.0000  -0.0306   0.1264  -0.0000  -0.0000
  75 O_a :4f0   -0.0209   0.0000   0.0078   0.0000   0.0000  -0.0125   0.0000
  76 O_a :4f1+  -0.0000   0.0149  -0.0000  -0.0000   0.0000  -0.0000  -0.0000
  77 O_a :4f2+  -0.0026   0.0000   0.0058  -0.0000   0.0000  -0.0193   0.0000
  78 O_a :4f3+  -0.0000   0.0113  -0.0000  -0.0000   0.0000  -0.0000  -0.0000
  80 H_a :1s     0.0311  -0.0000  -0.0304   0.0502   0.0626  -0.0224  -0.0000
  81 H_a :1s     0.2092  -0.0000   0.0415   0.1549  -0.0463  -0.1619  -0.0000
  82 H_a :1s     2.8142   0.0000   2.0924  -0.7750   1.1262  -0.3333  -0.0000
  83 H_a :1s    -7.1424  -0.0000  -5.3415  -0.0043   0.1539   7.0245   0.0000
  84 H_a :1s     0.6216   0.0000   0.4958  10.6992   1.5430  -0.0182   0.0000
  88 H_a :2px    0.0000   0.0081   0.0000   0.0000  -0.0000   0.0000  -0.0128
  89 H_a :2py   -0.0145   0.0000   0.0010  -0.0060  -0.0027  -0.0095  -0.0000
  90 H_a :2pz    0.0087  -0.0000   0.0079   0.0112   0.0010  -0.0113   0.0000
  91 H_a :2px    0.0000   0.0857   0.0000   0.0000  -0.0000   0.0000  -0.1707
  92 H_a :2py   -0.0336  -0.0000  -0.0609   0.0978   0.1326  -0.1174  -0.0000
  93 H_a :2pz    0.0312   0.0000   0.1372   0.0051  -0.0015  -0.0740  -0.0000
  94 H_a :2px   -0.0000   0.4011  -0.0000  -0.0000   0.0000  -0.0000  -0.5365
  95 H_a :2py   -0.1264  -0.0000  -0.2785   0.8040   0.0182  -0.4880  -0.0000
  96 H_a :2pz    0.2319   0.0000   0.7595   0.1543  -0.5487  -0.1493  -0.0000
  97 H_a :2px   -0.0000   1.3108  -0.0000  -0.0000   0.0000  -0.0000  -7.2680
  98 H_a :2py    0.9543  -0.0000  -0.2662   1.8171   0.9500  -6.6564  -0.0000
  99 H_a :2pz   -1.2986   0.0000   0.7710   2.1680  -6.6033   0.1805   0.0000
 106 H_a :3d1-  -0.0019  -0.0000  -0.0108   0.0020   0.0032  -0.0006  -0.0000
 109 H_a :3d2+  -0.0026  -0.0000  -0.0016   0.0067   0.0117  -0.0071  -0.0000
 110 H_a :3d2-  -0.0000  -0.0182  -0.0000  -0.0000   0.0000  -0.0000   0.0911
 111 H_a :3d1-  -0.0079   0.0000  -0.0466  -0.0228   0.2284  -0.0282  -0.0000
 112 H_a :3d0   -0.0193   0.0000   0.0365   0.0204   0.0068  -0.0583  -0.0000
 113 H_a :3d1+  -0.0000   0.0408  -0.0000  -0.0000   0.0000  -0.0000  -0.0314
 114 H_a :3d2+   0.0028  -0.0000  -0.0182   0.0767  -0.1011  -0.0797  -0.0000
 115 H_a :3d2-   0.0000  -0.1102   0.0000   0.0000  -0.0000   0.0000   0.6581
 116 H_a :3d1-   0.0827  -0.0000  -0.0983  -0.0505   0.7073   0.2399  -0.0000
 117 H_a :3d0   -0.1026  -0.0000   0.0821   0.0620   0.3460  -0.3400  -0.0000
 118 H_a :3d1+   0.0000   0.1521   0.0000   0.0000  -0.0000   0.0000   0.2735
 119 H_a :3d2+   0.0741  -0.0000  -0.0546   0.1442   0.0495  -0.5735  -0.0000
 121 H_b :1s     0.0311  -0.0000  -0.0304  -0.0502  -0.0626  -0.0224  -0.0000
 122 H_b :1s     0.2092  -0.0000   0.0415  -0.1549   0.0463  -0.1619  -0.0000
 123 H_b :1s     2.8142   0.0000   2.0924   0.7750  -1.1262  -0.3333  -0.0000
 124 H_b :1s    -7.1424  -0.0000  -5.3415   0.0043  -0.1539   7.0245   0.0000
 125 H_b :1s     0.6216  -0.0000   0.4958 -10.6992  -1.5430  -0.0182  -0.0000
 129 H_b :2px    0.0000   0.0081   0.0000   0.0000  -0.0000   0.0000   0.0128
 130 H_b :2py    0.0145  -0.0000  -0.0010  -0.0060  -0.0027   0.0095   0.0000
 131 H_b :2pz    0.0087   0.0000   0.0079  -0.0112  -0.0010  -0.0113   0.0000
 132 H_b :2px    0.0000   0.0857   0.0000   0.0000  -0.0000   0.0000   0.1707
 133 H_b :2py    0.0336   0.0000   0.0609   0.0978   0.1326   0.1174   0.0000
 134 H_b :2pz    0.0312   0.0000   0.1372  -0.0051   0.0015  -0.0740  -0.0000
 135 H_b :2px   -0.0000   0.4011  -0.0000  -0.0000   0.0000  -0.0000   0.5365
 136 H_b :2py    0.1264   0.0000   0.2785   0.8040   0.0182   0.4880   0.0000
 137 H_b :2pz    0.2319   0.0000   0.7595  -0.1543   0.5487  -0.1493  -0.0000
 138 H_b :2px   -0.0000   1.3108  -0.0000  -0.0000   0.0000  -0.0000   7.2680
 139 H_b :2py   -0.9543   0.0000   0.2662   1.8171   0.9500   6.6564   0.0000
 140 H_b :2pz   -1.2986   0.0000   0.7710  -2.1680   6.6033   0.1805   0.0000
 147 H_b :3d1-   0.0019   0.0000   0.0108   0.0020   0.0032   0.0006   0.0000
 150 H_b :3d2+  -0.0026  -0.0000  -0.0016  -0.0067  -0.0117  -0.0071  -0.0000
 151 H_b :3d2-   0.0000   0.0182   0.0000   0.0000  -0.0000   0.0000   0.0911
 152 H_b :3d1-   0.0079  -0.0000   0.0466  -0.0228   0.2284   0.0282  -0.0000
 153 H_b :3d0   -0.0193   0.0000   0.0365  -0.0204  -0.0068  -0.0583  -0.0000
 154 H_b :3d1+  -0.0000   0.0408  -0.0000  -0.0000   0.0000  -0.0000   0.0314
 155 H_b :3d2+   0.0028  -0.0000  -0.0182  -0.0767   0.1011  -0.0797  -0.0000
 156 H_b :3d2-  -0.0000   0.1102  -0.0000  -0.0000   0.0000  -0.0000   0.6581
 157 H_b :3d1-  -0.0827   0.0000   0.0983  -0.0505   0.7073  -0.2399   0.0000
 158 H_b :3d0   -0.1026  -0.0000   0.0821  -0.0620  -0.3460  -0.3400  -0.0000
 159 H_b :3d1+   0.0000   0.1521   0.0000   0.0000  -0.0000   0.0000  -0.2735
 160 H_b :3d2+   0.0741  -0.0000  -0.0546  -0.1442  -0.0495  -0.5735  -0.0000

    Orbital        15
   2 O_a :1s     0.0221
   4 O_a :1s     0.2458
   5 O_a :1s     1.5137
   6 O_a :1s    16.7861
   7 O_a :1s   -28.9873
  10 O_a :2pz   -0.0397
  13 O_a :2pz   -0.0110
  16 O_a :2pz   -0.1553
  19 O_a :2pz   -0.6073
  22 O_a :2pz   -2.9670
  25 O_a :2pz   -2.5904
  38 O_a :3d0    0.0127
  40 O_a :3d2+  -0.0263
  43 O_a :3d0    0.0676
  45 O_a :3d2+  -0.0804
  48 O_a :3d0   -0.1039
  50 O_a :3d2+  -0.3389
  70 O_a :4f2+   0.0113
  75 O_a :4f0   -0.0194
  80 H_a :1s    -0.0969
  81 H_a :1s    -0.6420
  82 H_a :1s    -8.2274
  83 H_a :1s    13.7302
  84 H_a :1s    -0.4092
  89 H_a :2py    0.0313
  90 H_a :2pz   -0.0184
  92 H_a :2py    0.0798
  93 H_a :2pz   -0.0128
  95 H_a :2py    0.0178
  96 H_a :2pz   -0.4348
  98 H_a :2py   -2.4683
  99 H_a :2pz    3.3350
 111 H_a :3d1-  -0.0232
 112 H_a :3d0   -0.0419
 116 H_a :3d1-  -0.1822
 117 H_a :3d0    0.0132
 119 H_a :3d2+  -0.1049
 121 H_b :1s    -0.0969
 122 H_b :1s    -0.6420
 123 H_b :1s    -8.2274
 124 H_b :1s    13.7302
 125 H_b :1s    -0.4092
 130 H_b :2py   -0.0313
 131 H_b :2pz   -0.0184
 133 H_b :2py   -0.0798
 134 H_b :2pz   -0.0128
 136 H_b :2py   -0.0178
 137 H_b :2pz   -0.4348
 139 H_b :2py    2.4683
 140 H_b :2pz    3.3350
 152 H_b :3d1-   0.0232
 153 H_b :3d0   -0.0419
 157 H_b :3d1-   0.1822
 158 H_b :3d0    0.0132
 160 H_b :3d2+  -0.1049

  Total CPU  time used in SIRIUS :  17.83 seconds
  Total wall time used in SIRIUS :  17.89 seconds

 
     Date and time (Linux)  : Sun Nov 26 17:48:13 2023
     Host name              : sn-mem                                  

 NOTE:    1 warnings have been issued.
 Check output, result, and error files for "WARNING".


                     .---------------------------------------.
                     | End of Wave Function Section (SIRIUS) |
                     `---------------------------------------'



                 .------------------------------------------------.
                 | Starting in Dynamic Property Section (RESPONS) |
                 `------------------------------------------------'


 ----------------------------------------------------------------------------------------
  RESPONSE  -  an MCSCF, MC-srDFT, DFT, SOPPA and SOPPA-srDFT response property program
 ----------------------------------------------------------------------------------------


 -------- OUTPUT FROM RESPONSE INPUT PROCESSING --------




 Quadratic Response calculation
 ------------------------------

 First hyperpolarizability calculation : HYPCAL= T

 Spin of operator A , ISPINA=    0
 Spin of operator B , ISPINB=    0
 Spin of operator C , ISPINC=    0

  5 B-frequencies  0.000000D+00  1.986669D-02  3.973338D-02  5.960006D-02  7.946675D-02
  5 C-frequencies  0.000000D+00  1.986669D-02  3.973338D-02  5.960006D-02  7.946675D-02


 Print level                                    : IPRHYP =   2
 Maximum number of iterations in lin.rsp. solver: MAXITL =  60
 Threshold for convergence of linear resp. eq.s : THCLR  = 1.000D-03
 Maximum iterations in optimal orbital algorithm: MAXITO =   5
 Direct one-index transformation                : DIROIT = T

    3 A OPERATORS OF SYMMETRY NO:    1 AND LABELS:

          XDIPLEN 
          YDIPLEN 
          ZDIPLEN 

    3 B OPERATORS OF SYMMETRY NO:    1 AND LABELS:

          XDIPLEN 
          YDIPLEN 
          ZDIPLEN 

    3 C OPERATORS OF SYMMETRY NO:    1 AND LABELS:

          XDIPLEN 
          YDIPLEN 
          ZDIPLEN 


   SCF energy         :      -76.060656871297496
 -- inactive part     :      -85.250190648884342
 -- nuclear repulsion :        9.189533777586849


                     ***************************************
                     *** RHF response calculation (TDHF) ***
                     ***************************************



 Linear response calculations for quadratic response
 - singlet property operator of symmetry    1  ( A  )


 Perturbation symmetry.     KSYMOP:           1
 Perturbation spin symmetry.TRPLET:           F
 Orbital variables.         KZWOPT:         770
 Configuration variables.   KZCONF:           0
 Total number of variables. KZVAR :         770


 QRLRVE -- linear response calculation for symmetry  1  ( A  )
 QRLRVE -- operator label : XDIPLEN 
 QRLRVE -- operator spin  :   0
 QRLRVE -- frequencies :  0.000000  0.019867  0.039733  0.059600  0.079467
                          0.099333  0.119200  0.139067  0.158934



 ---  SOLVING SETS OF LINEAR EQUATIONS FOR LINEAR RESPONSE PROPERTIES ---

 Operator symmetry = 1  ( A  ); triplet =   F


 ** RSPCTL MICROITERATION NUMBER    1

       No.  Residual tot.,    conf., and orb.    Bnorm      Frequency 
      ----------------------------------------------------------------
         1    6.97247D-01  0.00D+00  6.97D-01  2.36D+00    0.00000D+00
         2    6.98046D-01  0.00D+00  6.98D-01  2.36D+00    1.98667D-02
         3    7.00471D-01  0.00D+00  7.00D-01  2.38D+00    3.97334D-02
         4    7.04611D-01  0.00D+00  7.05D-01  2.42D+00    5.96001D-02
         5    7.10621D-01  0.00D+00  7.11D-01  2.46D+00    7.94668D-02
         6    7.18744D-01  0.00D+00  7.19D-01  2.53D+00    9.93334D-02
         7    7.29334D-01  0.00D+00  7.29D-01  2.61D+00    1.19200D-01
         8    7.42909D-01  0.00D+00  7.43D-01  2.71D+00    1.39067D-01
         9    7.60226D-01  0.00D+00  7.60D-01  2.85D+00    1.58934D-01

 ** RSPCTL MICROITERATION NUMBER    2

       No.  Residual tot.,    conf., and orb.    Bnorm      Frequency 
      ----------------------------------------------------------------
         1    6.69500D-02  0.00D+00  6.70D-02  2.46D+00    0.00000D+00
         2    6.73727D-02  0.00D+00  6.74D-02  2.46D+00    1.98667D-02
         3    6.86652D-02  0.00D+00  6.87D-02  2.49D+00    3.97334D-02
         4    7.09044D-02  0.00D+00  7.09D-02  2.53D+00    5.96001D-02
         5    7.42293D-02  0.00D+00  7.42D-02  2.59D+00    7.94668D-02
         6    7.88612D-02  0.00D+00  7.89D-02  2.67D+00    9.93334D-02
         7    8.51371D-02  0.00D+00  8.51D-02  2.77D+00    1.19200D-01
         8    9.35703D-02  0.00D+00  9.36D-02  2.91D+00    1.39067D-01
         9    1.04956D-01  0.00D+00  1.05D-01  3.09D+00    1.58934D-01

 ** RSPCTL MICROITERATION NUMBER    3

       No.  Residual tot.,    conf., and orb.    Bnorm      Frequency 
      ----------------------------------------------------------------
         1    5.23871D-03  0.00D+00  5.24D-03  2.46D+00    0.00000D+00
         2    5.36844D-03  0.00D+00  5.37D-03  2.46D+00    1.98667D-02
         3    5.75424D-03  0.00D+00  5.75D-03  2.49D+00    3.97334D-02
         4    6.39087D-03  0.00D+00  6.39D-03  2.53D+00    5.96001D-02
         5    7.28197D-03  0.00D+00  7.28D-03  2.59D+00    7.94668D-02
         6    8.45091D-03  0.00D+00  8.45D-03  2.67D+00    9.93334D-02
         7    9.95100D-03  0.00D+00  9.95D-03  2.78D+00    1.19200D-01
         8    1.18792D-02  0.00D+00  1.19D-02  2.92D+00    1.39067D-01
         9    1.44008D-02  0.00D+00  1.44D-02  3.10D+00    1.58934D-01

 ** RSPCTL MICROITERATION NUMBER    4

       No.  Residual tot.,    conf., and orb.    Bnorm      Frequency 
      ----------------------------------------------------------------
         1    6.50877D-04  0.00D+00  6.51D-04  2.46D+00    0.00000D+00
         2    6.57327D-04  0.00D+00  6.57D-04  2.46D+00    1.98667D-02
         3    6.77377D-04  0.00D+00  6.77D-04  2.49D+00    3.97334D-02
         4    7.13205D-04  0.00D+00  7.13D-04  2.53D+00    5.96001D-02
         5    7.68714D-04  0.00D+00  7.69D-04  2.59D+00    7.94668D-02
         6    8.50019D-04  0.00D+00  8.50D-04  2.67D+00    9.93334D-02
         7    9.66339D-04  0.00D+00  9.66D-04  2.78D+00    1.19200D-01
         8    1.13164D-03  0.00D+00  1.13D-03  2.92D+00    1.39067D-01
         9    1.36778D-03  0.00D+00  1.37D-03  3.10D+00    1.58934D-01

 *** THE REQUESTED    9 SOLUTION VECTORS CONVERGED

 Convergence of RSP solution vectors, threshold = 1.00D-03
 ---------------------------------------------------------------
 (dimension of paired reduced space:   72)
 RSP solution vector no.    1; norm of residual   2.65D-04
 RSP solution vector no.    2; norm of residual   2.67D-04
 RSP solution vector no.    3; norm of residual   2.72D-04
 RSP solution vector no.    4; norm of residual   2.82D-04
 RSP solution vector no.    5; norm of residual   2.97D-04
 RSP solution vector no.    6; norm of residual   3.19D-04
 RSP solution vector no.    7; norm of residual   3.48D-04
 RSP solution vector no.    8; norm of residual   3.88D-04
 RSP solution vector no.    9; norm of residual   4.41D-04

 *** RSPCTL MICROITERATIONS CONVERGED

@ QRLRVE: SINGLET SOLUTION FOR SYMMETRY    1  ( A  )    LABEL   XDIPLEN     FREQUENCY   0.000000D+00

@ QRLRVE:  << XDIPLEN  ; XDIPLEN  >> (   0.00000):     7.91315155821    

@ QRLRVE:  << YDIPLEN  ; XDIPLEN  >> (   0.00000):    4.726074625357E-16

@ QRLRVE:  << ZDIPLEN  ; XDIPLEN  >> (   0.00000):   -5.804293955662E-16

@ QRLRVE: SINGLET SOLUTION FOR SYMMETRY    1  ( A  )    LABEL   XDIPLEN     FREQUENCY   0.198667D-01

@ QRLRVE:  << XDIPLEN  ; XDIPLEN  >> (   0.01987):     7.92371848900    

@ QRLRVE:  << YDIPLEN  ; XDIPLEN  >> (   0.01987):    4.746566149153E-16

@ QRLRVE:  << ZDIPLEN  ; XDIPLEN  >> (   0.01987):   -5.834437760644E-16

@ QRLRVE: SINGLET SOLUTION FOR SYMMETRY    1  ( A  )    LABEL   XDIPLEN     FREQUENCY   0.397334D-01

@ QRLRVE:  << XDIPLEN  ; XDIPLEN  >> (   0.03973):     7.95575035196    

@ QRLRVE:  << YDIPLEN  ; XDIPLEN  >> (   0.03973):    4.809045243316E-16

@ QRLRVE:  << ZDIPLEN  ; XDIPLEN  >> (   0.03973):   -5.926808505064E-16

@ QRLRVE: SINGLET SOLUTION FOR SYMMETRY    1  ( A  )    LABEL   XDIPLEN     FREQUENCY   0.596001D-01

@ QRLRVE:  << XDIPLEN  ; XDIPLEN  >> (   0.05960):     8.01027483640    

@ QRLRVE:  << YDIPLEN  ; XDIPLEN  >> (   0.05960):    4.916648516549E-16

@ QRLRVE:  << ZDIPLEN  ; XDIPLEN  >> (   0.05960):   -6.087506358510E-16

@ QRLRVE: SINGLET SOLUTION FOR SYMMETRY    1  ( A  )    LABEL   XDIPLEN     FREQUENCY   0.794668D-01

@ QRLRVE:  << XDIPLEN  ; XDIPLEN  >> (   0.07947):     8.08912726195    

@ QRLRVE:  << YDIPLEN  ; XDIPLEN  >> (   0.07947):    5.075042527204E-16

@ QRLRVE:  << ZDIPLEN  ; XDIPLEN  >> (   0.07947):   -6.327711474714E-16

@ QRLRVE: SINGLET SOLUTION FOR SYMMETRY    1  ( A  )    LABEL   XDIPLEN     FREQUENCY   0.993334D-01

@ QRLRVE:  << XDIPLEN  ; XDIPLEN  >> (   0.09933):     8.19516374195    

@ QRLRVE:  << YDIPLEN  ; XDIPLEN  >> (   0.09933):    5.293193886751E-16

@ QRLRVE:  << ZDIPLEN  ; XDIPLEN  >> (   0.09933):   -6.665487662412E-16

@ QRLRVE: SINGLET SOLUTION FOR SYMMETRY    1  ( A  )    LABEL   XDIPLEN     FREQUENCY   0.119200D+00

@ QRLRVE:  << XDIPLEN  ; XDIPLEN  >> (   0.11920):     8.33263050916    

@ QRLRVE:  << YDIPLEN  ; XDIPLEN  >> (   0.11920):    5.584717965876E-16

@ QRLRVE:  << ZDIPLEN  ; XDIPLEN  >> (   0.11920):   -7.129000720952E-16

@ QRLRVE: SINGLET SOLUTION FOR SYMMETRY    1  ( A  )    LABEL   XDIPLEN     FREQUENCY   0.139067D+00

@ QRLRVE:  << XDIPLEN  ; XDIPLEN  >> (   0.13907):     8.50779626275    

@ QRLRVE:  << YDIPLEN  ; XDIPLEN  >> (   0.13907):    5.970216884528E-16

@ QRLRVE:  << ZDIPLEN  ; XDIPLEN  >> (   0.13907):   -7.762220900921E-16

@ QRLRVE: SINGLET SOLUTION FOR SYMMETRY    1  ( A  )    LABEL   XDIPLEN     FREQUENCY   0.158934D+00

@ QRLRVE:  << XDIPLEN  ; XDIPLEN  >> (   0.15893):     8.73006371580    

@ QRLRVE:  << YDIPLEN  ; XDIPLEN  >> (   0.15893):    6.481442634385E-16

@ QRLRVE:  << ZDIPLEN  ; XDIPLEN  >> (   0.15893):   -8.635317897554E-16


 QRLRVE -- linear response calculation for symmetry  1  ( A  )
 QRLRVE -- operator label : YDIPLEN 
 QRLRVE -- operator spin  :   0
 QRLRVE -- frequencies :  0.000000  0.019867  0.039733  0.059600  0.079467
                          0.099333  0.119200  0.139067  0.158934



 ---  SOLVING SETS OF LINEAR EQUATIONS FOR LINEAR RESPONSE PROPERTIES ---

 Operator symmetry = 1  ( A  ); triplet =   F


 ** RSPCTL MICROITERATION NUMBER    1

       No.  Residual tot.,    conf., and orb.    Bnorm      Frequency 
      ----------------------------------------------------------------
         1    8.66568D-01  0.00D+00  8.67D-01  2.35D+00    0.00000D+00
         2    8.67197D-01  0.00D+00  8.67D-01  2.35D+00    1.98667D-02
         3    8.69093D-01  0.00D+00  8.69D-01  2.36D+00    3.97334D-02
         4    8.72280D-01  0.00D+00  8.72D-01  2.38D+00    5.96001D-02
         5    8.76801D-01  0.00D+00  8.77D-01  2.41D+00    7.94668D-02
         6    8.82719D-01  0.00D+00  8.83D-01  2.45D+00    9.93334D-02
         7    8.90117D-01  0.00D+00  8.90D-01  2.49D+00    1.19200D-01
         8    8.99105D-01  0.00D+00  8.99D-01  2.55D+00    1.39067D-01
         9    9.09823D-01  0.00D+00  9.10D-01  2.62D+00    1.58934D-01

 ** RSPCTL MICROITERATION NUMBER    2

       No.  Residual tot.,    conf., and orb.    Bnorm      Frequency 
      ----------------------------------------------------------------
         1    8.50379D-02  0.00D+00  8.50D-02  2.43D+00    0.00000D+00
         2    8.52268D-02  0.00D+00  8.52D-02  2.44D+00    1.98667D-02
         3    8.57979D-02  0.00D+00  8.58D-02  2.45D+00    3.97334D-02
         4    8.67653D-02  0.00D+00  8.68D-02  2.47D+00    5.96001D-02
         5    8.81529D-02  0.00D+00  8.82D-02  2.50D+00    7.94668D-02
         6    8.99959D-02  0.00D+00  9.00D-02  2.54D+00    9.93334D-02
         7    9.23433D-02  0.00D+00  9.23D-02  2.59D+00    1.19200D-01
         8    9.52600D-02  0.00D+00  9.53D-02  2.65D+00    1.39067D-01
         9    9.88316D-02  0.00D+00  9.88D-02  2.73D+00    1.58934D-01

 ** RSPCTL MICROITERATION NUMBER    3

       No.  Residual tot.,    conf., and orb.    Bnorm      Frequency 
      ----------------------------------------------------------------
         1    9.98903D-03  0.00D+00  9.99D-03  2.43D+00    0.00000D+00
         2    1.00403D-02  0.00D+00  1.00D-02  2.44D+00    1.98667D-02
         3    1.01950D-02  0.00D+00  1.02D-02  2.45D+00    3.97334D-02
         4    1.04563D-02  0.00D+00  1.05D-02  2.47D+00    5.96001D-02
         5    1.08294D-02  0.00D+00  1.08D-02  2.50D+00    7.94668D-02
         6    1.13223D-02  0.00D+00  1.13D-02  2.54D+00    9.93334D-02
         7    1.19463D-02  0.00D+00  1.19D-02  2.59D+00    1.19200D-01
         8    1.27166D-02  0.00D+00  1.27D-02  2.65D+00    1.39067D-01
         9    1.36539D-02  0.00D+00  1.37D-02  2.73D+00    1.58934D-01

 ** RSPCTL MICROITERATION NUMBER    4

       No.  Residual tot.,    conf., and orb.    Bnorm      Frequency 
      ----------------------------------------------------------------
         1    3.21376D-03  0.00D+00  3.21D-03  2.43D+00    0.00000D+00
         2    3.23025D-03  0.00D+00  3.23D-03  2.44D+00    1.98667D-02
         3    3.28023D-03  0.00D+00  3.28D-03  2.45D+00    3.97334D-02
         4    3.36520D-03  0.00D+00  3.37D-03  2.47D+00    5.96001D-02
         5    3.48781D-03  0.00D+00  3.49D-03  2.50D+00    7.94668D-02
         6    3.65196D-03  0.00D+00  3.65D-03  2.54D+00    9.93334D-02
         7    3.86310D-03  0.00D+00  3.86D-03  2.59D+00    1.19200D-01
         8    4.12859D-03  0.00D+00  4.13D-03  2.65D+00    1.39067D-01
         9    4.45828D-03  0.00D+00  4.46D-03  2.73D+00    1.58934D-01

 ** RSPCTL MICROITERATION NUMBER    5

       No.  Residual tot.,    conf., and orb.    Bnorm      Frequency 
      ----------------------------------------------------------------
         1    3.92491D-04  0.00D+00  3.92D-04  2.43D+00    0.00000D+00
         2    3.94614D-04  0.00D+00  3.95D-04  2.44D+00    1.98667D-02
         3    4.01054D-04  0.00D+00  4.01D-04  2.45D+00    3.97334D-02
         4    4.12027D-04  0.00D+00  4.12D-04  2.47D+00    5.96001D-02
         5    4.27905D-04  0.00D+00  4.28D-04  2.50D+00    7.94668D-02
         6    4.49248D-04  0.00D+00  4.49D-04  2.54D+00    9.93334D-02
         7    4.76832D-04  0.00D+00  4.77D-04  2.59D+00    1.19200D-01
         8    5.11713D-04  0.00D+00  5.12D-04  2.65D+00    1.39067D-01
         9    5.55302D-04  0.00D+00  5.55D-04  2.73D+00    1.58934D-01

 *** THE REQUESTED    9 SOLUTION VECTORS CONVERGED

 Convergence of RSP solution vectors, threshold = 1.00D-03
 ---------------------------------------------------------------
 (dimension of paired reduced space:   90)
 RSP solution vector no.    1; norm of residual   1.61D-04
 RSP solution vector no.    2; norm of residual   1.62D-04
 RSP solution vector no.    3; norm of residual   1.64D-04
 RSP solution vector no.    4; norm of residual   1.67D-04
 RSP solution vector no.    5; norm of residual   1.71D-04
 RSP solution vector no.    6; norm of residual   1.77D-04
 RSP solution vector no.    7; norm of residual   1.84D-04
 RSP solution vector no.    8; norm of residual   1.93D-04
 RSP solution vector no.    9; norm of residual   2.03D-04

 *** RSPCTL MICROITERATIONS CONVERGED

@ QRLRVE: SINGLET SOLUTION FOR SYMMETRY    1  ( A  )    LABEL   YDIPLEN     FREQUENCY   0.000000D+00

@ QRLRVE:  << XDIPLEN  ; YDIPLEN  >> (   0.00000):   -3.358865224536E-16

@ QRLRVE:  << YDIPLEN  ; YDIPLEN  >> (   0.00000):     9.19499936921    

@ QRLRVE:  << ZDIPLEN  ; YDIPLEN  >> (   0.00000):    7.594554316641E-05

@ QRLRVE: SINGLET SOLUTION FOR SYMMETRY    1  ( A  )    LABEL   YDIPLEN     FREQUENCY   0.198667D-01

@ QRLRVE:  << XDIPLEN  ; YDIPLEN  >> (   0.01987):   -3.437162160114E-16

@ QRLRVE:  << YDIPLEN  ; YDIPLEN  >> (   0.01987):     9.20335652454    

@ QRLRVE:  << ZDIPLEN  ; YDIPLEN  >> (   0.01987):    7.609855652917E-05

@ QRLRVE: SINGLET SOLUTION FOR SYMMETRY    1  ( A  )    LABEL   YDIPLEN     FREQUENCY   0.397334D-01

@ QRLRVE:  << XDIPLEN  ; YDIPLEN  >> (   0.03973):   -3.676674683766E-16

@ QRLRVE:  << YDIPLEN  ; YDIPLEN  >> (   0.03973):     9.22854718624    

@ QRLRVE:  << ZDIPLEN  ; YDIPLEN  >> (   0.03973):    7.655080240772E-05

@ QRLRVE: SINGLET SOLUTION FOR SYMMETRY    1  ( A  )    LABEL   YDIPLEN     FREQUENCY   0.596001D-01

@ QRLRVE:  << XDIPLEN  ; YDIPLEN  >> (   0.05960):   -4.091688185205E-16

@ QRLRVE:  << YDIPLEN  ; YDIPLEN  >> (   0.05960):     9.27093381467    

@ QRLRVE:  << ZDIPLEN  ; YDIPLEN  >> (   0.05960):    7.728063420959E-05

@ QRLRVE: SINGLET SOLUTION FOR SYMMETRY    1  ( A  )    LABEL   YDIPLEN     FREQUENCY   0.794668D-01

@ QRLRVE:  << XDIPLEN  ; YDIPLEN  >> (   0.07947):   -4.707467422434E-16

@ QRLRVE:  << YDIPLEN  ; YDIPLEN  >> (   0.07947):     9.33113715916    

@ QRLRVE:  << ZDIPLEN  ; YDIPLEN  >> (   0.07947):    7.824754355073E-05

@ QRLRVE: SINGLET SOLUTION FOR SYMMETRY    1  ( A  )    LABEL   YDIPLEN     FREQUENCY   0.993334D-01

@ QRLRVE:  << XDIPLEN  ; YDIPLEN  >> (   0.09933):   -5.562642418596E-16

@ QRLRVE:  << YDIPLEN  ; YDIPLEN  >> (   0.09933):     9.41006270603    

@ QRLRVE:  << ZDIPLEN  ; YDIPLEN  >> (   0.09933):    7.938470731880E-05

@ QRLRVE: SINGLET SOLUTION FOR SYMMETRY    1  ( A  )    LABEL   YDIPLEN     FREQUENCY   0.119200D+00

@ QRLRVE:  << XDIPLEN  ; YDIPLEN  >> (   0.11920):   -6.712990825466E-16

@ QRLRVE:  << YDIPLEN  ; YDIPLEN  >> (   0.11920):     9.50894087534    

@ QRLRVE:  << ZDIPLEN  ; YDIPLEN  >> (   0.11920):    8.058676437487E-05

@ QRLRVE: SINGLET SOLUTION FOR SYMMETRY    1  ( A  )    LABEL   YDIPLEN     FREQUENCY   0.139067D+00

@ QRLRVE:  << XDIPLEN  ; YDIPLEN  >> (   0.13907):   -8.237155979124E-16

@ QRLRVE:  << YDIPLEN  ; YDIPLEN  >> (   0.13907):     9.62938470071    

@ QRLRVE:  << ZDIPLEN  ; YDIPLEN  >> (   0.13907):    8.169057775275E-05

@ QRLRVE: SINGLET SOLUTION FOR SYMMETRY    1  ( A  )    LABEL   YDIPLEN     FREQUENCY   0.158934D+00

@ QRLRVE:  << XDIPLEN  ; YDIPLEN  >> (   0.15893):   -1.024515969809E-15

@ QRLRVE:  << YDIPLEN  ; YDIPLEN  >> (   0.15893):     9.77347074675    

@ QRLRVE:  << ZDIPLEN  ; YDIPLEN  >> (   0.15893):    8.244531792416E-05


 QRLRVE -- linear response calculation for symmetry  1  ( A  )
 QRLRVE -- operator label : ZDIPLEN 
 QRLRVE -- operator spin  :   0
 QRLRVE -- frequencies :  0.000000  0.019867  0.039733  0.059600  0.079467
                          0.099333  0.119200  0.139067  0.158934



 ---  SOLVING SETS OF LINEAR EQUATIONS FOR LINEAR RESPONSE PROPERTIES ---

 Operator symmetry = 1  ( A  ); triplet =   F


 ** RSPCTL MICROITERATION NUMBER    1

       No.  Residual tot.,    conf., and orb.    Bnorm      Frequency 
      ----------------------------------------------------------------
         1    1.55165D+00  0.00D+00  1.55D+00  2.21D+00    0.00000D+00
         2    1.55315D+00  0.00D+00  1.55D+00  2.21D+00    1.98667D-02
         3    1.55767D+00  0.00D+00  1.56D+00  2.23D+00    3.97334D-02
         4    1.56528D+00  0.00D+00  1.57D+00  2.25D+00    5.96001D-02
         5    1.57614D+00  0.00D+00  1.58D+00  2.28D+00    7.94668D-02
         6    1.59045D+00  0.00D+00  1.59D+00  2.33D+00    9.93334D-02
         7    1.60849D+00  0.00D+00  1.61D+00  2.38D+00    1.19200D-01
         8    1.63064D+00  0.00D+00  1.63D+00  2.45D+00    1.39067D-01
         9    1.65742D+00  0.00D+00  1.66D+00  2.53D+00    1.58934D-01

 ** RSPCTL MICROITERATION NUMBER    2

       No.  Residual tot.,    conf., and orb.    Bnorm      Frequency 
      ----------------------------------------------------------------
         1    3.86495D-01  0.00D+00  3.86D-01  2.40D+00    0.00000D+00
         2    3.87160D-01  0.00D+00  3.87D-01  2.41D+00    1.98667D-02
         3    3.89174D-01  0.00D+00  3.89D-01  2.42D+00    3.97334D-02
         4    3.92586D-01  0.00D+00  3.93D-01  2.45D+00    5.96001D-02
         5    3.97485D-01  0.00D+00  3.97D-01  2.49D+00    7.94668D-02
         6    4.04005D-01  0.00D+00  4.04D-01  2.54D+00    9.93334D-02
         7    4.12332D-01  0.00D+00  4.12D-01  2.61D+00    1.19200D-01
         8    4.22727D-01  0.00D+00  4.23D-01  2.69D+00    1.39067D-01
         9    4.35545D-01  0.00D+00  4.36D-01  2.80D+00    1.58934D-01

 ** RSPCTL MICROITERATION NUMBER    3

       No.  Residual tot.,    conf., and orb.    Bnorm      Frequency 
      ----------------------------------------------------------------
         1    3.84039D-02  0.00D+00  3.84D-02  2.42D+00    0.00000D+00
         2    3.84912D-02  0.00D+00  3.85D-02  2.42D+00    1.98667D-02
         3    3.87562D-02  0.00D+00  3.88D-02  2.44D+00    3.97334D-02
         4    3.92083D-02  0.00D+00  3.92D-02  2.47D+00    5.96001D-02
         5    3.98642D-02  0.00D+00  3.99D-02  2.51D+00    7.94668D-02
         6    4.07496D-02  0.00D+00  4.07D-02  2.56D+00    9.93334D-02
         7    4.19020D-02  0.00D+00  4.19D-02  2.63D+00    1.19200D-01
         8    4.33752D-02  0.00D+00  4.34D-02  2.72D+00    1.39067D-01
         9    4.52459D-02  0.00D+00  4.52D-02  2.83D+00    1.58934D-01

 ** RSPCTL MICROITERATION NUMBER    4

       No.  Residual tot.,    conf., and orb.    Bnorm      Frequency 
      ----------------------------------------------------------------
         1    4.07518D-03  0.00D+00  4.08D-03  2.42D+00    0.00000D+00
         2    4.08994D-03  0.00D+00  4.09D-03  2.42D+00    1.98667D-02
         3    4.13483D-03  0.00D+00  4.13D-03  2.44D+00    3.97334D-02
         4    4.21165D-03  0.00D+00  4.21D-03  2.47D+00    5.96001D-02
         5    4.32362D-03  0.00D+00  4.32D-03  2.51D+00    7.94668D-02
         6    4.47563D-03  0.00D+00  4.48D-03  2.56D+00    9.93334D-02
         7    4.67477D-03  0.00D+00  4.67D-03  2.63D+00    1.19200D-01
         8    4.93106D-03  0.00D+00  4.93D-03  2.72D+00    1.39067D-01
         9    5.25864D-03  0.00D+00  5.26D-03  2.83D+00    1.58934D-01

 ** RSPCTL MICROITERATION NUMBER    5

       No.  Residual tot.,    conf., and orb.    Bnorm      Frequency 
      ----------------------------------------------------------------
         1    6.69273D-04  0.00D+00  6.69D-04  2.42D+00    0.00000D+00
         2    6.72730D-04  0.00D+00  6.73D-04  2.42D+00    1.98667D-02
         3    6.83230D-04  0.00D+00  6.83D-04  2.44D+00    3.97334D-02
         4    7.01176D-04  0.00D+00  7.01D-04  2.47D+00    5.96001D-02
         5    7.27274D-04  0.00D+00  7.27D-04  2.51D+00    7.94668D-02
         6    7.62596D-04  0.00D+00  7.63D-04  2.56D+00    9.93334D-02
         7    8.08677D-04  0.00D+00  8.09D-04  2.63D+00    1.19200D-01
         8    8.67667D-04  0.00D+00  8.68D-04  2.72D+00    1.39067D-01
         9    9.42569D-04  0.00D+00  9.43D-04  2.83D+00    1.58934D-01

 *** THE REQUESTED    9 SOLUTION VECTORS CONVERGED

 Convergence of RSP solution vectors, threshold = 1.00D-03
 ---------------------------------------------------------------
 (dimension of paired reduced space:   90)
 RSP solution vector no.    1; norm of residual   2.77D-04
 RSP solution vector no.    2; norm of residual   2.78D-04
 RSP solution vector no.    3; norm of residual   2.80D-04
 RSP solution vector no.    4; norm of residual   2.84D-04
 RSP solution vector no.    5; norm of residual   2.90D-04
 RSP solution vector no.    6; norm of residual   2.97D-04
 RSP solution vector no.    7; norm of residual   3.07D-04
 RSP solution vector no.    8; norm of residual   3.19D-04
 RSP solution vector no.    9; norm of residual   3.33D-04

 *** RSPCTL MICROITERATIONS CONVERGED

@ QRLRVE: SINGLET SOLUTION FOR SYMMETRY    1  ( A  )    LABEL   ZDIPLEN     FREQUENCY   0.000000D+00

@ QRLRVE:  << XDIPLEN  ; ZDIPLEN  >> (   0.00000):   -3.605302763736E-16

@ QRLRVE:  << YDIPLEN  ; ZDIPLEN  >> (   0.00000):    1.441599189652E-04

@ QRLRVE:  << ZDIPLEN  ; ZDIPLEN  >> (   0.00000):     8.53461256909    

@ QRLRVE: SINGLET SOLUTION FOR SYMMETRY    1  ( A  )    LABEL   ZDIPLEN     FREQUENCY   0.198667D-01

@ QRLRVE:  << XDIPLEN  ; ZDIPLEN  >> (   0.01987):   -3.601666330098E-16

@ QRLRVE:  << YDIPLEN  ; ZDIPLEN  >> (   0.01987):    1.441569440363E-04

@ QRLRVE:  << ZDIPLEN  ; ZDIPLEN  >> (   0.01987):     8.54375319890    

@ QRLRVE: SINGLET SOLUTION FOR SYMMETRY    1  ( A  )    LABEL   ZDIPLEN     FREQUENCY   0.397334D-01

@ QRLRVE:  << XDIPLEN  ; ZDIPLEN  >> (   0.03973):   -3.590115550469E-16

@ QRLRVE:  << YDIPLEN  ; ZDIPLEN  >> (   0.03973):    1.441172059003E-04

@ QRLRVE:  << ZDIPLEN  ; ZDIPLEN  >> (   0.03973):     8.57136067947    

@ QRLRVE: SINGLET SOLUTION FOR SYMMETRY    1  ( A  )    LABEL   ZDIPLEN     FREQUENCY   0.596001D-01

@ QRLRVE:  << XDIPLEN  ; ZDIPLEN  >> (   0.05960):   -3.568577133464E-16

@ QRLRVE:  << YDIPLEN  ; ZDIPLEN  >> (   0.05960):    1.439438009370E-04

@ QRLRVE:  << ZDIPLEN  ; ZDIPLEN  >> (   0.05960):     8.61800347880    

@ QRLRVE: SINGLET SOLUTION FOR SYMMETRY    1  ( A  )    LABEL   ZDIPLEN     FREQUENCY   0.794668D-01

@ QRLRVE:  << XDIPLEN  ; ZDIPLEN  >> (   0.07947):   -3.533048740708E-16

@ QRLRVE:  << YDIPLEN  ; ZDIPLEN  >> (   0.07947):    1.434595049917E-04

@ QRLRVE:  << ZDIPLEN  ; ZDIPLEN  >> (   0.07947):     8.68466955420    

@ QRLRVE: SINGLET SOLUTION FOR SYMMETRY    1  ( A  )    LABEL   ZDIPLEN     FREQUENCY   0.993334D-01

@ QRLRVE:  << XDIPLEN  ; ZDIPLEN  >> (   0.09933):   -3.476578334951E-16

@ QRLRVE:  << YDIPLEN  ; ZDIPLEN  >> (   0.09933):    1.423800327685E-04

@ QRLRVE:  << ZDIPLEN  ; ZDIPLEN  >> (   0.09933):     8.77283280933    

@ QRLRVE: SINGLET SOLUTION FOR SYMMETRY    1  ( A  )    LABEL   ZDIPLEN     FREQUENCY   0.119200D+00

@ QRLRVE:  << XDIPLEN  ; ZDIPLEN  >> (   0.11920):   -3.387338011335E-16

@ QRLRVE:  << YDIPLEN  ; ZDIPLEN  >> (   0.11920):    1.402693781002E-04

@ QRLRVE:  << ZDIPLEN  ; ZDIPLEN  >> (   0.11920):     8.88455886395    

@ QRLRVE: SINGLET SOLUTION FOR SYMMETRY    1  ( A  )    LABEL   ZDIPLEN     FREQUENCY   0.139067D+00

@ QRLRVE:  << XDIPLEN  ; ZDIPLEN  >> (   0.13907):   -3.245009746948E-16

@ QRLRVE:  << YDIPLEN  ; ZDIPLEN  >> (   0.13907):    1.364675606767E-04

@ QRLRVE:  << ZDIPLEN  ; ZDIPLEN  >> (   0.13907):     9.02266650081    

@ QRLRVE: SINGLET SOLUTION FOR SYMMETRY    1  ( A  )    LABEL   ZDIPLEN     FREQUENCY   0.158934D+00

@ QRLRVE:  << XDIPLEN  ; ZDIPLEN  >> (   0.15893):   -3.013866677062E-16

@ QRLRVE:  << YDIPLEN  ; ZDIPLEN  >> (   0.15893):    1.299737071863E-04

@ QRLRVE:  << ZDIPLEN  ; ZDIPLEN  >> (   0.15893):     9.19097253788    
 
 ======================================================================
 ---  L I N E A R   R E S P O N S E   F U N C T I O N S --- 
 ======================================================================

 The -<<A;B>>(omega_b) functions from vectors generated
 in a *QUADRA calculation of <<A;B,C>>(omega_b,omega_c)

 Note: the accuracy of off-diagonal elements will be linear
 in the convergence threshold THCLR =  1.00D-03


 Perturbation symmetry.     KSYMOP:           1
 Perturbation spin symmetry.TRPLET:           F
 Orbital variables.         KZWOPT:         770
 Configuration variables.   KZCONF:           0
 Total number of variables. KZVAR :         770

@ Singlet linear response function in a.u.

@ A operator, symmetry, frequency:   XDIPLEN    1 -0.000000
@ B operator, symmetry, frequency:   XDIPLEN    1  0.000000

@ Value of linear response -<<A;B>>(omega):       7.913151558215

@ Singlet linear response function in a.u.

@ A operator, symmetry, frequency:   YDIPLEN    1 -0.000000
@ B operator, symmetry, frequency:   XDIPLEN    1  0.000000

@ Value of linear response -<<A;B>>(omega):       0.000000000000

@ Singlet linear response function in a.u.

@ A operator, symmetry, frequency:   ZDIPLEN    1 -0.000000
@ B operator, symmetry, frequency:   XDIPLEN    1  0.000000

@ Value of linear response -<<A;B>>(omega):      -0.000000000000

@ Singlet linear response function in a.u.

@ A operator, symmetry, frequency:   XDIPLEN    1 -0.019867
@ B operator, symmetry, frequency:   XDIPLEN    1  0.019867

@ Value of linear response -<<A;B>>(omega):       7.923718489002

@ Singlet linear response function in a.u.

@ A operator, symmetry, frequency:   YDIPLEN    1 -0.019867
@ B operator, symmetry, frequency:   XDIPLEN    1  0.019867

@ Value of linear response -<<A;B>>(omega):       0.000000000000

@ Singlet linear response function in a.u.

@ A operator, symmetry, frequency:   ZDIPLEN    1 -0.019867
@ B operator, symmetry, frequency:   XDIPLEN    1  0.019867

@ Value of linear response -<<A;B>>(omega):      -0.000000000000

@ Singlet linear response function in a.u.

@ A operator, symmetry, frequency:   XDIPLEN    1 -0.039733
@ B operator, symmetry, frequency:   XDIPLEN    1  0.039733

@ Value of linear response -<<A;B>>(omega):       7.955750351957

@ Singlet linear response function in a.u.

@ A operator, symmetry, frequency:   YDIPLEN    1 -0.039733
@ B operator, symmetry, frequency:   XDIPLEN    1  0.039733

@ Value of linear response -<<A;B>>(omega):       0.000000000000

@ Singlet linear response function in a.u.

@ A operator, symmetry, frequency:   ZDIPLEN    1 -0.039733
@ B operator, symmetry, frequency:   XDIPLEN    1  0.039733

@ Value of linear response -<<A;B>>(omega):      -0.000000000000

@ Singlet linear response function in a.u.

@ A operator, symmetry, frequency:   XDIPLEN    1 -0.059600
@ B operator, symmetry, frequency:   XDIPLEN    1  0.059600

@ Value of linear response -<<A;B>>(omega):       8.010274836400

@ Singlet linear response function in a.u.

@ A operator, symmetry, frequency:   YDIPLEN    1 -0.059600
@ B operator, symmetry, frequency:   XDIPLEN    1  0.059600

@ Value of linear response -<<A;B>>(omega):       0.000000000000

@ Singlet linear response function in a.u.

@ A operator, symmetry, frequency:   ZDIPLEN    1 -0.059600
@ B operator, symmetry, frequency:   XDIPLEN    1  0.059600

@ Value of linear response -<<A;B>>(omega):      -0.000000000000

@ Singlet linear response function in a.u.

@ A operator, symmetry, frequency:   XDIPLEN    1 -0.079467
@ B operator, symmetry, frequency:   XDIPLEN    1  0.079467

@ Value of linear response -<<A;B>>(omega):       8.089127261948

@ Singlet linear response function in a.u.

@ A operator, symmetry, frequency:   YDIPLEN    1 -0.079467
@ B operator, symmetry, frequency:   XDIPLEN    1  0.079467

@ Value of linear response -<<A;B>>(omega):       0.000000000000

@ Singlet linear response function in a.u.

@ A operator, symmetry, frequency:   ZDIPLEN    1 -0.079467
@ B operator, symmetry, frequency:   XDIPLEN    1  0.079467

@ Value of linear response -<<A;B>>(omega):      -0.000000000000

@ Singlet linear response function in a.u.

@ A operator, symmetry, frequency:   XDIPLEN    1 -0.000000
@ B operator, symmetry, frequency:   YDIPLEN    1  0.000000

@ Value of linear response -<<A;B>>(omega):      -0.000000000000

@ Singlet linear response function in a.u.

@ A operator, symmetry, frequency:   YDIPLEN    1 -0.000000
@ B operator, symmetry, frequency:   YDIPLEN    1  0.000000

@ Value of linear response -<<A;B>>(omega):       9.194999369212

@ Singlet linear response function in a.u.

@ A operator, symmetry, frequency:   ZDIPLEN    1 -0.000000
@ B operator, symmetry, frequency:   YDIPLEN    1  0.000000

@ Value of linear response -<<A;B>>(omega):       0.000075945543

@ Singlet linear response function in a.u.

@ A operator, symmetry, frequency:   XDIPLEN    1 -0.019867
@ B operator, symmetry, frequency:   YDIPLEN    1  0.019867

@ Value of linear response -<<A;B>>(omega):      -0.000000000000

@ Singlet linear response function in a.u.

@ A operator, symmetry, frequency:   YDIPLEN    1 -0.019867
@ B operator, symmetry, frequency:   YDIPLEN    1  0.019867

@ Value of linear response -<<A;B>>(omega):       9.203356524539

@ Singlet linear response function in a.u.

@ A operator, symmetry, frequency:   ZDIPLEN    1 -0.019867
@ B operator, symmetry, frequency:   YDIPLEN    1  0.019867

@ Value of linear response -<<A;B>>(omega):       0.000076098557

@ Singlet linear response function in a.u.

@ A operator, symmetry, frequency:   XDIPLEN    1 -0.039733
@ B operator, symmetry, frequency:   YDIPLEN    1  0.039733

@ Value of linear response -<<A;B>>(omega):      -0.000000000000

@ Singlet linear response function in a.u.

@ A operator, symmetry, frequency:   YDIPLEN    1 -0.039733
@ B operator, symmetry, frequency:   YDIPLEN    1  0.039733

@ Value of linear response -<<A;B>>(omega):       9.228547186244

@ Singlet linear response function in a.u.

@ A operator, symmetry, frequency:   ZDIPLEN    1 -0.039733
@ B operator, symmetry, frequency:   YDIPLEN    1  0.039733

[...]
@ B-freq = 0.059600  C-freq = 0.059600     beta(Y;Z,Y) =     10.34766357
@ B-freq = 0.059600  C-freq = 0.059600     beta(Z;Z,Y) =     -0.00241802
@ B-freq = 0.079467  C-freq = 0.059600     beta(X;Z,Y) =     -0.00000000
@ B-freq = 0.079467  C-freq = 0.059600     beta(Y;Z,Y) =     10.73674302
@ B-freq = 0.079467  C-freq = 0.059600     beta(Z;Z,Y) =     -0.00272474
@ B-freq = 0.000000  C-freq = 0.079467     beta(X;X,Y) = beta(X,Y,X)
@ B-freq = 0.000000  C-freq = 0.079467     beta(Y;X,Y) = beta(Y,Y,X)
@ B-freq = 0.000000  C-freq = 0.079467     beta(Z;X,Y) = beta(Z,Y,X)
@ B-freq = 0.019867  C-freq = 0.079467     beta(X;X,Y) = beta(X,Y,X)
@ B-freq = 0.019867  C-freq = 0.079467     beta(Y;X,Y) = beta(Y,Y,X)
@ B-freq = 0.019867  C-freq = 0.079467     beta(Z;X,Y) = beta(Z,Y,X)
@ B-freq = 0.039733  C-freq = 0.079467     beta(X;X,Y) = beta(X,Y,X)
@ B-freq = 0.039733  C-freq = 0.079467     beta(Y;X,Y) = beta(Y,Y,X)
@ B-freq = 0.039733  C-freq = 0.079467     beta(Z;X,Y) = beta(Z,Y,X)
@ B-freq = 0.059600  C-freq = 0.079467     beta(X;X,Y) = beta(X,Y,X)
@ B-freq = 0.059600  C-freq = 0.079467     beta(Y;X,Y) = beta(Y,Y,X)
@ B-freq = 0.059600  C-freq = 0.079467     beta(Z;X,Y) = beta(Z,Y,X)
@ B-freq = 0.079467  C-freq = 0.079467     beta(X;X,Y) = beta(X,Y,X)
@ B-freq = 0.079467  C-freq = 0.079467     beta(Y;X,Y) = beta(Y,Y,X)
@ B-freq = 0.079467  C-freq = 0.079467     beta(Z;X,Y) = beta(Z,Y,X)
@ B-freq = 0.000000  C-freq = 0.079467     beta(X;Y,Y) = beta(X,Y,Y)
@ B-freq = 0.000000  C-freq = 0.079467     beta(Y;Y,Y) = beta(Y,Y,Y)
@ B-freq = 0.000000  C-freq = 0.079467     beta(Z;Y,Y) = beta(Z,Y,Y)
@ B-freq = 0.019867  C-freq = 0.079467     beta(X;Y,Y) = beta(X,Y,Y)
@ B-freq = 0.019867  C-freq = 0.079467     beta(Y;Y,Y) = beta(Y,Y,Y)
@ B-freq = 0.019867  C-freq = 0.079467     beta(Z;Y,Y) = beta(Z,Y,Y)
@ B-freq = 0.039733  C-freq = 0.079467     beta(X;Y,Y) = beta(X,Y,Y)
@ B-freq = 0.039733  C-freq = 0.079467     beta(Y;Y,Y) = beta(Y,Y,Y)
@ B-freq = 0.039733  C-freq = 0.079467     beta(Z;Y,Y) = beta(Z,Y,Y)
@ B-freq = 0.059600  C-freq = 0.079467     beta(X;Y,Y) = beta(X,Y,Y)
@ B-freq = 0.059600  C-freq = 0.079467     beta(Y;Y,Y) = beta(Y,Y,Y)
@ B-freq = 0.059600  C-freq = 0.079467     beta(Z;Y,Y) = beta(Z,Y,Y)
@ B-freq = 0.079467  C-freq = 0.079467     beta(X;Y,Y) =     -0.00000000
@ B-freq = 0.079467  C-freq = 0.079467     beta(Y;Y,Y) =      0.00087169
@ B-freq = 0.079467  C-freq = 0.079467     beta(Z;Y,Y) =     11.25357656
@ B-freq = 0.000000  C-freq = 0.079467     beta(X;Z,Y) =     -0.00000000
@ B-freq = 0.000000  C-freq = 0.079467     beta(Y;Z,Y) =      9.94433748
@ B-freq = 0.000000  C-freq = 0.079467     beta(Z;Z,Y) =     -0.00205357
@ B-freq = 0.019867  C-freq = 0.079467     beta(X;Z,Y) =     -0.00000000
@ B-freq = 0.019867  C-freq = 0.079467     beta(Y;Z,Y) =     10.12197019
@ B-freq = 0.019867  C-freq = 0.079467     beta(Z;Z,Y) =     -0.00218263
@ B-freq = 0.039733  C-freq = 0.079467     beta(X;Z,Y) =     -0.00000000
@ B-freq = 0.039733  C-freq = 0.079467     beta(Y;Z,Y) =     10.38035675
@ B-freq = 0.039733  C-freq = 0.079467     beta(Z;Z,Y) =     -0.00237644
@ B-freq = 0.059600  C-freq = 0.079467     beta(X;Z,Y) =     -0.00000000
@ B-freq = 0.059600  C-freq = 0.079467     beta(Y;Z,Y) =     10.72927012
@ B-freq = 0.059600  C-freq = 0.079467     beta(Z;Z,Y) =     -0.00265017
@ B-freq = 0.079467  C-freq = 0.079467     beta(X;Z,Y) =     -0.00000000
@ B-freq = 0.079467  C-freq = 0.079467     beta(Y;Z,Y) =     11.18283351
@ B-freq = 0.079467  C-freq = 0.079467     beta(Z;Z,Y) =     -0.00302675
@ B-freq = 0.000000  C-freq = 0.000000     beta(X;X,Z) = beta(Z,X,X)
@ B-freq = 0.000000  C-freq = 0.000000     beta(Y;X,Z) = beta(Z,Y,X)
@ B-freq = 0.000000  C-freq = 0.000000     beta(Z;X,Z) = beta(Z,Z,X)
@ B-freq = 0.019867  C-freq = 0.000000     beta(X;X,Z) = beta(X,Z,X)
@ B-freq = 0.019867  C-freq = 0.000000     beta(Y;X,Z) = beta(Y,Z,X)
@ B-freq = 0.019867  C-freq = 0.000000     beta(Z;X,Z) = beta(Z,Z,X)
@ B-freq = 0.039733  C-freq = 0.000000     beta(X;X,Z) = beta(X,Z,X)
@ B-freq = 0.039733  C-freq = 0.000000     beta(Y;X,Z) = beta(Y,Z,X)
@ B-freq = 0.039733  C-freq = 0.000000     beta(Z;X,Z) = beta(Z,Z,X)
@ B-freq = 0.059600  C-freq = 0.000000     beta(X;X,Z) = beta(X,Z,X)
@ B-freq = 0.059600  C-freq = 0.000000     beta(Y;X,Z) = beta(Y,Z,X)
@ B-freq = 0.059600  C-freq = 0.000000     beta(Z;X,Z) = beta(Z,Z,X)
@ B-freq = 0.079467  C-freq = 0.000000     beta(X;X,Z) = beta(X,Z,X)
@ B-freq = 0.079467  C-freq = 0.000000     beta(Y;X,Z) = beta(Y,Z,X)
@ B-freq = 0.079467  C-freq = 0.000000     beta(Z;X,Z) = beta(Z,Z,X)
@ B-freq = 0.000000  C-freq = 0.000000     beta(X;Y,Z) = beta(Z,Y,X)
@ B-freq = 0.000000  C-freq = 0.000000     beta(Y;Y,Z) = beta(Z,Y,Y)
@ B-freq = 0.000000  C-freq = 0.000000     beta(Z;Y,Z) = beta(Z,Z,Y)
@ B-freq = 0.019867  C-freq = 0.000000     beta(X;Y,Z) = beta(X,Z,Y)
@ B-freq = 0.019867  C-freq = 0.000000     beta(Y;Y,Z) = beta(Y,Z,Y)
@ B-freq = 0.019867  C-freq = 0.000000     beta(Z;Y,Z) = beta(Z,Z,Y)
@ B-freq = 0.039733  C-freq = 0.000000     beta(X;Y,Z) = beta(X,Z,Y)
@ B-freq = 0.039733  C-freq = 0.000000     beta(Y;Y,Z) = beta(Y,Z,Y)
@ B-freq = 0.039733  C-freq = 0.000000     beta(Z;Y,Z) = beta(Z,Z,Y)
@ B-freq = 0.059600  C-freq = 0.000000     beta(X;Y,Z) = beta(X,Z,Y)
@ B-freq = 0.059600  C-freq = 0.000000     beta(Y;Y,Z) = beta(Y,Z,Y)
@ B-freq = 0.059600  C-freq = 0.000000     beta(Z;Y,Z) = beta(Z,Z,Y)
@ B-freq = 0.079467  C-freq = 0.000000     beta(X;Y,Z) = beta(X,Z,Y)
@ B-freq = 0.079467  C-freq = 0.000000     beta(Y;Y,Z) = beta(Y,Z,Y)
@ B-freq = 0.079467  C-freq = 0.000000     beta(Z;Y,Z) = beta(Z,Z,Y)
@ B-freq = 0.000000  C-freq = 0.000000     beta(X;Z,Z) = beta(Z,Z,X)
@ B-freq = 0.000000  C-freq = 0.000000     beta(Y;Z,Z) = beta(Z,Z,Y)
@ B-freq = 0.000000  C-freq = 0.000000     beta(X;Z,Z) =     -0.00000000
@ B-freq = 0.000000  C-freq = 0.000000     beta(Y;Z,Z) =     -0.00182250
@ B-freq = 0.000000  C-freq = 0.000000     beta(Z;Z,Z) =      7.59604749
@ B-freq = 0.019867  C-freq = 0.000000     beta(X;Z,Z) =     -0.00000000
@ B-freq = 0.019867  C-freq = 0.000000     beta(Y;Z,Z) =     -0.00183590
@ B-freq = 0.019867  C-freq = 0.000000     beta(Z;Z,Z) =      7.63151496
@ B-freq = 0.039733  C-freq = 0.000000     beta(X;Z,Z) =     -0.00000000
@ B-freq = 0.039733  C-freq = 0.000000     beta(Y;Z,Z) =     -0.00187688
@ B-freq = 0.039733  C-freq = 0.000000     beta(Z;Z,Z) =      7.73951779
@ B-freq = 0.059600  C-freq = 0.000000     beta(X;Z,Z) =     -0.00000000
@ B-freq = 0.059600  C-freq = 0.000000     beta(Y;Z,Z) =     -0.00194794
@ B-freq = 0.059600  C-freq = 0.000000     beta(Z;Z,Z) =      7.92502187
@ B-freq = 0.079467  C-freq = 0.000000     beta(X;Z,Z) =     -0.00000000
@ B-freq = 0.079467  C-freq = 0.000000     beta(Y;Z,Z) =     -0.00205357
@ B-freq = 0.079467  C-freq = 0.000000     beta(Z;Z,Z) =      8.19688266
@ B-freq = 0.000000  C-freq = 0.019867     beta(X;X,Z) = beta(X,Z,X)
@ B-freq = 0.000000  C-freq = 0.019867     beta(Y;X,Z) = beta(Y,Z,X)
@ B-freq = 0.000000  C-freq = 0.019867     beta(Z;X,Z) = beta(Z,Z,X)
@ B-freq = 0.019867  C-freq = 0.019867     beta(X;X,Z) = beta(X,Z,X)
@ B-freq = 0.019867  C-freq = 0.019867     beta(Y;X,Z) = beta(Y,Z,X)
@ B-freq = 0.019867  C-freq = 0.019867     beta(Z;X,Z) = beta(Z,Z,X)
@ B-freq = 0.039733  C-freq = 0.019867     beta(X;X,Z) = beta(X,Z,X)
@ B-freq = 0.039733  C-freq = 0.019867     beta(Y;X,Z) = beta(Y,Z,X)
@ B-freq = 0.039733  C-freq = 0.019867     beta(Z;X,Z) = beta(Z,Z,X)
@ B-freq = 0.059600  C-freq = 0.019867     beta(X;X,Z) = beta(X,Z,X)
@ B-freq = 0.059600  C-freq = 0.019867     beta(Y;X,Z) = beta(Y,Z,X)
@ B-freq = 0.059600  C-freq = 0.019867     beta(Z;X,Z) = beta(Z,Z,X)
@ B-freq = 0.079467  C-freq = 0.019867     beta(X;X,Z) = beta(X,Z,X)
@ B-freq = 0.079467  C-freq = 0.019867     beta(Y;X,Z) = beta(Y,Z,X)
@ B-freq = 0.079467  C-freq = 0.019867     beta(Z;X,Z) = beta(Z,Z,X)
@ B-freq = 0.000000  C-freq = 0.019867     beta(X;Y,Z) = beta(X,Z,Y)
@ B-freq = 0.000000  C-freq = 0.019867     beta(Y;Y,Z) = beta(Y,Z,Y)
@ B-freq = 0.000000  C-freq = 0.019867     beta(Z;Y,Z) = beta(Z,Z,Y)
@ B-freq = 0.019867  C-freq = 0.019867     beta(X;Y,Z) = beta(X,Z,Y)
@ B-freq = 0.019867  C-freq = 0.019867     beta(Y;Y,Z) = beta(Y,Z,Y)
@ B-freq = 0.019867  C-freq = 0.019867     beta(Z;Y,Z) = beta(Z,Z,Y)
@ B-freq = 0.039733  C-freq = 0.019867     beta(X;Y,Z) = beta(X,Z,Y)
@ B-freq = 0.039733  C-freq = 0.019867     beta(Y;Y,Z) = beta(Y,Z,Y)
@ B-freq = 0.039733  C-freq = 0.019867     beta(Z;Y,Z) = beta(Z,Z,Y)
@ B-freq = 0.059600  C-freq = 0.019867     beta(X;Y,Z) = beta(X,Z,Y)
@ B-freq = 0.059600  C-freq = 0.019867     beta(Y;Y,Z) = beta(Y,Z,Y)
@ B-freq = 0.059600  C-freq = 0.019867     beta(Z;Y,Z) = beta(Z,Z,Y)
@ B-freq = 0.079467  C-freq = 0.019867     beta(X;Y,Z) = beta(X,Z,Y)
@ B-freq = 0.079467  C-freq = 0.019867     beta(Y;Y,Z) = beta(Y,Z,Y)
@ B-freq = 0.079467  C-freq = 0.019867     beta(Z;Y,Z) = beta(Z,Z,Y)
@ B-freq = 0.000000  C-freq = 0.019867     beta(X;Z,Z) = beta(X,Z,Z)
@ B-freq = 0.000000  C-freq = 0.019867     beta(Y;Z,Z) = beta(Y,Z,Z)
@ B-freq = 0.000000  C-freq = 0.019867     beta(Z;Z,Z) = beta(Z,Z,Z)
@ B-freq = 0.019867  C-freq = 0.019867     beta(X;Z,Z) =     -0.00000000
@ B-freq = 0.019867  C-freq = 0.019867     beta(Y;Z,Z) =     -0.00185454
@ B-freq = 0.019867  C-freq = 0.019867     beta(Z;Z,Z) =      7.70324786
@ B-freq = 0.039733  C-freq = 0.019867     beta(X;Z,Z) =     -0.00000000
@ B-freq = 0.039733  C-freq = 0.019867     beta(Y;Z,Z) =     -0.00190146
@ B-freq = 0.039733  C-freq = 0.019867     beta(Z;Z,Z) =      7.84998265
@ B-freq = 0.059600  C-freq = 0.019867     beta(X;Z,Z) =     -0.00000000
@ B-freq = 0.059600  C-freq = 0.019867     beta(Y;Z,Z) =     -0.00197965
@ B-freq = 0.059600  C-freq = 0.019867     beta(Z;Z,Z) =      8.07859800
@ B-freq = 0.079467  C-freq = 0.019867     beta(X;Z,Z) =     -0.00000000
@ B-freq = 0.079467  C-freq = 0.019867     beta(Y;Z,Z) =     -0.00209424
@ B-freq = 0.079467  C-freq = 0.019867     beta(Z;Z,Z) =      8.40032738
@ B-freq = 0.000000  C-freq = 0.039733     beta(X;X,Z) = beta(X,Z,X)
@ B-freq = 0.000000  C-freq = 0.039733     beta(Y;X,Z) = beta(Y,Z,X)
@ B-freq = 0.000000  C-freq = 0.039733     beta(Z;X,Z) = beta(Z,Z,X)
@ B-freq = 0.019867  C-freq = 0.039733     beta(X;X,Z) = beta(X,Z,X)
@ B-freq = 0.019867  C-freq = 0.039733     beta(Y;X,Z) = beta(Y,Z,X)
@ B-freq = 0.019867  C-freq = 0.039733     beta(Z;X,Z) = beta(Z,Z,X)
@ B-freq = 0.039733  C-freq = 0.039733     beta(X;X,Z) = beta(X,Z,X)
@ B-freq = 0.039733  C-freq = 0.039733     beta(Y;X,Z) = beta(Y,Z,X)
@ B-freq = 0.039733  C-freq = 0.039733     beta(Z;X,Z) = beta(Z,Z,X)
@ B-freq = 0.059600  C-freq = 0.039733     beta(X;X,Z) = beta(X,Z,X)
@ B-freq = 0.059600  C-freq = 0.039733     beta(Y;X,Z) = beta(Y,Z,X)
@ B-freq = 0.059600  C-freq = 0.039733     beta(Z;X,Z) = beta(Z,Z,X)
@ B-freq = 0.079467  C-freq = 0.039733     beta(X;X,Z) = beta(X,Z,X)
@ B-freq = 0.079467  C-freq = 0.039733     beta(Y;X,Z) = beta(Y,Z,X)
@ B-freq = 0.079467  C-freq = 0.039733     beta(Z;X,Z) = beta(Z,Z,X)
@ B-freq = 0.000000  C-freq = 0.039733     beta(X;Y,Z) = beta(X,Z,Y)
@ B-freq = 0.000000  C-freq = 0.039733     beta(Y;Y,Z) = beta(Y,Z,Y)
@ B-freq = 0.000000  C-freq = 0.039733     beta(Z;Y,Z) = beta(Z,Z,Y)
@ B-freq = 0.019867  C-freq = 0.039733     beta(X;Y,Z) = beta(X,Z,Y)
@ B-freq = 0.019867  C-freq = 0.039733     beta(Y;Y,Z) = beta(Y,Z,Y)
@ B-freq = 0.019867  C-freq = 0.039733     beta(Z;Y,Z) = beta(Z,Z,Y)
@ B-freq = 0.039733  C-freq = 0.039733     beta(X;Y,Z) = beta(X,Z,Y)
@ B-freq = 0.039733  C-freq = 0.039733     beta(Y;Y,Z) = beta(Y,Z,Y)
@ B-freq = 0.039733  C-freq = 0.039733     beta(Z;Y,Z) = beta(Z,Z,Y)
@ B-freq = 0.059600  C-freq = 0.039733     beta(X;Y,Z) = beta(X,Z,Y)
@ B-freq = 0.059600  C-freq = 0.039733     beta(Y;Y,Z) = beta(Y,Z,Y)
@ B-freq = 0.059600  C-freq = 0.039733     beta(Z;Y,Z) = beta(Z,Z,Y)
@ B-freq = 0.079467  C-freq = 0.039733     beta(X;Y,Z) = beta(X,Z,Y)
@ B-freq = 0.079467  C-freq = 0.039733     beta(Y;Y,Z) = beta(Y,Z,Y)
@ B-freq = 0.079467  C-freq = 0.039733     beta(Z;Y,Z) = beta(Z,Z,Y)
@ B-freq = 0.000000  C-freq = 0.039733     beta(X;Z,Z) = beta(X,Z,Z)
@ B-freq = 0.000000  C-freq = 0.039733     beta(Y;Z,Z) = beta(Y,Z,Z)
@ B-freq = 0.000000  C-freq = 0.039733     beta(Z;Z,Z) = beta(Z,Z,Z)
@ B-freq = 0.019867  C-freq = 0.039733     beta(X;Z,Z) = beta(X,Z,Z)
@ B-freq = 0.019867  C-freq = 0.039733     beta(Y;Z,Z) = beta(Y,Z,Z)
@ B-freq = 0.019867  C-freq = 0.039733     beta(Z;Z,Z) = beta(Z,Z,Z)
@ B-freq = 0.039733  C-freq = 0.039733     beta(X;Z,Z) =     -0.00000000
@ B-freq = 0.039733  C-freq = 0.039733     beta(Y;Z,Z) =     -0.00195557
@ B-freq = 0.039733  C-freq = 0.039733     beta(Z;Z,Z) =      8.03978023
@ B-freq = 0.059600  C-freq = 0.039733     beta(X;Z,Z) =     -0.00000000
@ B-freq = 0.059600  C-freq = 0.039733     beta(Y;Z,Z) =     -0.00204284
@ B-freq = 0.059600  C-freq = 0.039733     beta(Z;Z,Z) =      8.31808129
@ B-freq = 0.079467  C-freq = 0.039733     beta(X;Z,Z) =     -0.00000000
@ B-freq = 0.079467  C-freq = 0.039733     beta(Y;Z,Z) =     -0.00216925
@ B-freq = 0.079467  C-freq = 0.039733     beta(Z;Z,Z) =      8.69912333
@ B-freq = 0.000000  C-freq = 0.059600     beta(X;X,Z) = beta(X,Z,X)
@ B-freq = 0.000000  C-freq = 0.059600     beta(Y;X,Z) = beta(Y,Z,X)
@ B-freq = 0.000000  C-freq = 0.059600     beta(Z;X,Z) = beta(Z,Z,X)
@ B-freq = 0.019867  C-freq = 0.059600     beta(X;X,Z) = beta(X,Z,X)
@ B-freq = 0.019867  C-freq = 0.059600     beta(Y;X,Z) = beta(Y,Z,X)
@ B-freq = 0.019867  C-freq = 0.059600     beta(Z;X,Z) = beta(Z,Z,X)
@ B-freq = 0.039733  C-freq = 0.059600     beta(X;X,Z) = beta(X,Z,X)
@ B-freq = 0.039733  C-freq = 0.059600     beta(Y;X,Z) = beta(Y,Z,X)
@ B-freq = 0.039733  C-freq = 0.059600     beta(Z;X,Z) = beta(Z,Z,X)
@ B-freq = 0.059600  C-freq = 0.059600     beta(X;X,Z) = beta(X,Z,X)
@ B-freq = 0.059600  C-freq = 0.059600     beta(Y;X,Z) = beta(Y,Z,X)
@ B-freq = 0.059600  C-freq = 0.059600     beta(Z;X,Z) = beta(Z,Z,X)
@ B-freq = 0.079467  C-freq = 0.059600     beta(X;X,Z) = beta(X,Z,X)
@ B-freq = 0.079467  C-freq = 0.059600     beta(Y;X,Z) = beta(Y,Z,X)
@ B-freq = 0.079467  C-freq = 0.059600     beta(Z;X,Z) = beta(Z,Z,X)
@ B-freq = 0.000000  C-freq = 0.059600     beta(X;Y,Z) = beta(X,Z,Y)
@ B-freq = 0.000000  C-freq = 0.059600     beta(Y;Y,Z) = beta(Y,Z,Y)
@ B-freq = 0.000000  C-freq = 0.059600     beta(Z;Y,Z) = beta(Z,Z,Y)
@ B-freq = 0.019867  C-freq = 0.059600     beta(X;Y,Z) = beta(X,Z,Y)
@ B-freq = 0.019867  C-freq = 0.059600     beta(Y;Y,Z) = beta(Y,Z,Y)
@ B-freq = 0.019867  C-freq = 0.059600     beta(Z;Y,Z) = beta(Z,Z,Y)
@ B-freq = 0.039733  C-freq = 0.059600     beta(X;Y,Z) = beta(X,Z,Y)
@ B-freq = 0.039733  C-freq = 0.059600     beta(Y;Y,Z) = beta(Y,Z,Y)
@ B-freq = 0.039733  C-freq = 0.059600     beta(Z;Y,Z) = beta(Z,Z,Y)
@ B-freq = 0.059600  C-freq = 0.059600     beta(X;Y,Z) = beta(X,Z,Y)
@ B-freq = 0.059600  C-freq = 0.059600     beta(Y;Y,Z) = beta(Y,Z,Y)
@ B-freq = 0.059600  C-freq = 0.059600     beta(Z;Y,Z) = beta(Z,Z,Y)
@ B-freq = 0.079467  C-freq = 0.059600     beta(X;Y,Z) = beta(X,Z,Y)
@ B-freq = 0.079467  C-freq = 0.059600     beta(Y;Y,Z) = beta(Y,Z,Y)
@ B-freq = 0.079467  C-freq = 0.059600     beta(Z;Y,Z) = beta(Z,Z,Y)
@ B-freq = 0.000000  C-freq = 0.059600     beta(X;Z,Z) = beta(X,Z,Z)
@ B-freq = 0.000000  C-freq = 0.059600     beta(Y;Z,Z) = beta(Y,Z,Z)
@ B-freq = 0.000000  C-freq = 0.059600     beta(Z;Z,Z) = beta(Z,Z,Z)
@ B-freq = 0.019867  C-freq = 0.059600     beta(X;Z,Z) = beta(X,Z,Z)
@ B-freq = 0.019867  C-freq = 0.059600     beta(Y;Z,Z) = beta(Y,Z,Z)
@ B-freq = 0.019867  C-freq = 0.059600     beta(Z;Z,Z) = beta(Z,Z,Z)
@ B-freq = 0.039733  C-freq = 0.059600     beta(X;Z,Z) = beta(X,Z,Z)
@ B-freq = 0.039733  C-freq = 0.059600     beta(Y;Z,Z) = beta(Y,Z,Z)
@ B-freq = 0.039733  C-freq = 0.059600     beta(Z;Z,Z) = beta(Z,Z,Z)
@ B-freq = 0.059600  C-freq = 0.059600     beta(X;Z,Z) =     -0.00000000
@ B-freq = 0.059600  C-freq = 0.059600     beta(Y;Z,Z) =     -0.00214196
@ B-freq = 0.059600  C-freq = 0.059600     beta(Z;Z,Z) =      8.65553711
@ B-freq = 0.079467  C-freq = 0.059600     beta(X;Z,Z) =     -0.00000000
@ B-freq = 0.079467  C-freq = 0.059600     beta(Y;Z,Z) =     -0.00228409
@ B-freq = 0.079467  C-freq = 0.059600     beta(Z;Z,Z) =      9.10916266
@ B-freq = 0.000000  C-freq = 0.079467     beta(X;X,Z) = beta(X,Z,X)
@ B-freq = 0.000000  C-freq = 0.079467     beta(Y;X,Z) = beta(Y,Z,X)
@ B-freq = 0.000000  C-freq = 0.079467     beta(Z;X,Z) = beta(Z,Z,X)
@ B-freq = 0.019867  C-freq = 0.079467     beta(X;X,Z) = beta(X,Z,X)
@ B-freq = 0.019867  C-freq = 0.079467     beta(Y;X,Z) = beta(Y,Z,X)
@ B-freq = 0.019867  C-freq = 0.079467     beta(Z;X,Z) = beta(Z,Z,X)
@ B-freq = 0.039733  C-freq = 0.079467     beta(X;X,Z) = beta(X,Z,X)
@ B-freq = 0.039733  C-freq = 0.079467     beta(Y;X,Z) = beta(Y,Z,X)
@ B-freq = 0.039733  C-freq = 0.079467     beta(Z;X,Z) = beta(Z,Z,X)
@ B-freq = 0.059600  C-freq = 0.079467     beta(X;X,Z) = beta(X,Z,X)
@ B-freq = 0.059600  C-freq = 0.079467     beta(Y;X,Z) = beta(Y,Z,X)
@ B-freq = 0.059600  C-freq = 0.079467     beta(Z;X,Z) = beta(Z,Z,X)
@ B-freq = 0.079467  C-freq = 0.079467     beta(X;X,Z) = beta(X,Z,X)
@ B-freq = 0.079467  C-freq = 0.079467     beta(Y;X,Z) = beta(Y,Z,X)
@ B-freq = 0.079467  C-freq = 0.079467     beta(Z;X,Z) = beta(Z,Z,X)
@ B-freq = 0.000000  C-freq = 0.079467     beta(X;Y,Z) = beta(X,Z,Y)
@ B-freq = 0.000000  C-freq = 0.079467     beta(Y;Y,Z) = beta(Y,Z,Y)
@ B-freq = 0.000000  C-freq = 0.079467     beta(Z;Y,Z) = beta(Z,Z,Y)
@ B-freq = 0.019867  C-freq = 0.079467     beta(X;Y,Z) = beta(X,Z,Y)
@ B-freq = 0.019867  C-freq = 0.079467     beta(Y;Y,Z) = beta(Y,Z,Y)
@ B-freq = 0.019867  C-freq = 0.079467     beta(Z;Y,Z) = beta(Z,Z,Y)
@ B-freq = 0.039733  C-freq = 0.079467     beta(X;Y,Z) = beta(X,Z,Y)
@ B-freq = 0.039733  C-freq = 0.079467     beta(Y;Y,Z) = beta(Y,Z,Y)
@ B-freq = 0.039733  C-freq = 0.079467     beta(Z;Y,Z) = beta(Z,Z,Y)
@ B-freq = 0.059600  C-freq = 0.079467     beta(X;Y,Z) = beta(X,Z,Y)
@ B-freq = 0.059600  C-freq = 0.079467     beta(Y;Y,Z) = beta(Y,Z,Y)
@ B-freq = 0.059600  C-freq = 0.079467     beta(Z;Y,Z) = beta(Z,Z,Y)
@ B-freq = 0.079467  C-freq = 0.079467     beta(X;Y,Z) = beta(X,Z,Y)
@ B-freq = 0.079467  C-freq = 0.079467     beta(Y;Y,Z) = beta(Y,Z,Y)
@ B-freq = 0.079467  C-freq = 0.079467     beta(Z;Y,Z) = beta(Z,Z,Y)
@ B-freq = 0.000000  C-freq = 0.079467     beta(X;Z,Z) = beta(X,Z,Z)
@ B-freq = 0.000000  C-freq = 0.079467     beta(Y;Z,Z) = beta(Y,Z,Z)
@ B-freq = 0.000000  C-freq = 0.079467     beta(Z;Z,Z) = beta(Z,Z,Z)
@ B-freq = 0.019867  C-freq = 0.079467     beta(X;Z,Z) = beta(X,Z,Z)
@ B-freq = 0.019867  C-freq = 0.079467     beta(Y;Z,Z) = beta(Y,Z,Z)
@ B-freq = 0.019867  C-freq = 0.079467     beta(Z;Z,Z) = beta(Z,Z,Z)
@ B-freq = 0.039733  C-freq = 0.079467     beta(X;Z,Z) = beta(X,Z,Z)
@ B-freq = 0.039733  C-freq = 0.079467     beta(Y;Z,Z) = beta(Y,Z,Z)
@ B-freq = 0.039733  C-freq = 0.079467     beta(Z;Z,Z) = beta(Z,Z,Z)
@ B-freq = 0.059600  C-freq = 0.079467     beta(X;Z,Z) = beta(X,Z,Z)
@ B-freq = 0.059600  C-freq = 0.079467     beta(Y;Z,Z) = beta(Y,Z,Z)
@ B-freq = 0.059600  C-freq = 0.079467     beta(Z;Z,Z) = beta(Z,Z,Z)
@ B-freq = 0.079467  C-freq = 0.079467     beta(X;Z,Z) =     -0.00000000
@ B-freq = 0.079467  C-freq = 0.079467     beta(Y;Z,Z) =     -0.00244741
@ B-freq = 0.079467  C-freq = 0.079467     beta(Z;Z,Z) =      9.65406951

  Total CPU  time used in RESPONSE:  8 minutes 29 seconds
  Total wall time used in RESPONSE:  8 minutes 30 seconds


                   .-------------------------------------------.
                   | End of Dynamic Property Section (RESPONS) |
                   `-------------------------------------------'

  Total CPU  time used in DALTON:  8 minutes 47 seconds
  Total wall time used in DALTON:  8 minutes 48 seconds

 
     Date and time (Linux)  : Sun Nov 26 17:56:43 2023
     Host name              : sn-mem                                  
