

     ************************************************************************
     *************** Dalton - An Electronic Structure Program ***************
     ************************************************************************

    This is output from DALTON release Dalton2020.0 (2020)
         ( Web site: http://daltonprogram.org )

   ----------------------------------------------------------------------------

    NOTE:
     
    Dalton is an experimental code for the evaluation of molecular
    properties using (MC)SCF, DFT, CI, and CC wave functions.
    The authors accept no responsibility for the performance of
    the code or for the correctness of the results.
     
    The code (in whole or part) is provided under a licence and
    is not to be reproduced for further distribution without
    the written permission of the authors or their representatives.
     
    See the home page "http://daltonprogram.org" for further information.
     
    If results obtained with this code are published,
    the appropriate citations would be both of:
     
       K. Aidas, C. Angeli, K. L. Bak, V. Bakken, R. Bast,
       L. Boman, O. Christiansen, R. Cimiraglia, S. Coriani,
       P. Dahle, E. K. Dalskov, U. Ekstroem,
       T. Enevoldsen, J. J. Eriksen, P. Ettenhuber, B. Fernandez,
       L. Ferrighi, H. Fliegl, L. Frediani, K. Hald, A. Halkier,
       C. Haettig, H. Heiberg, T. Helgaker, A. C. Hennum,
       H. Hettema, E. Hjertenaes, S. Hoest, I.-M. Hoeyvik,
       M. F. Iozzi, B. Jansik, H. J. Aa. Jensen, D. Jonsson,
       P. Joergensen, J. Kauczor, S. Kirpekar,
       T. Kjaergaard, W. Klopper, S. Knecht, R. Kobayashi, H. Koch,
       J. Kongsted, A. Krapp, K. Kristensen, A. Ligabue,
       O. B. Lutnaes, J. I. Melo, K. V. Mikkelsen, R. H. Myhre,
       C. Neiss, C. B. Nielsen, P. Norman, J. Olsen,
       J. M. H. Olsen, A. Osted, M. J. Packer, F. Pawlowski,
       T. B. Pedersen, P. F. Provasi, S. Reine, Z. Rinkevicius,
       T. A. Ruden, K. Ruud, V. Rybkin, P. Salek, C. C. M. Samson,
       A. Sanchez de Meras, T. Saue, S. P. A. Sauer,
       B. Schimmelpfennig, K. Sneskov, A. H. Steindal,
       K. O. Sylvester-Hvid, P. R. Taylor, A. M. Teale,
       E. I. Tellgren, D. P. Tew, A. J. Thorvaldsen, L. Thoegersen,
       O. Vahtras, M. A. Watson, D. J. D. Wilson, M. Ziolkowski
       and H. Agren,
       "The Dalton quantum chemistry program system",
       WIREs Comput. Mol. Sci. 2014, 4:269–284 (doi: 10.1002/wcms.1172)
     
    and
     
       Dalton, a molecular electronic structure program,
       Release Dalton2020.0 (2020), see http://daltonprogram.org
   ----------------------------------------------------------------------------

    Authors in alphabetical order (Major contribution(s) in parenthesis):

  Kestutis Aidas,           Vilnius University,           Lithuania   (QM/MM)
  Celestino Angeli,         University of Ferrara,        Italy       (NEVPT2)
  Keld L. Bak,              UNI-C,                        Denmark     (AOSOPPA, non-adiabatic coupling, magnetic properties)
  Vebjoern Bakken,          University of Oslo,           Norway      (DALTON; geometry optimizer, symmetry detection)
  Radovan Bast,             UiT The Arctic U. of Norway,  Norway      (DALTON installation and execution frameworks)
  Pablo Baudin,             University of Valencia,       Spain       (Cholesky excitation energies)
  Linus Boman,              NTNU,                         Norway      (Cholesky decomposition and subsystems)
  Bruno N. Cabral Tenorio,  Technical Univ. of Denmark,   Denmark     (Lanczos-based CC methods)
  Ove Christiansen,         Aarhus University,            Denmark     (CC module)
  Renzo Cimiraglia,         University of Ferrara,        Italy       (NEVPT2)
  Sonia Coriani,            Technical Univ. of Denmark,   Denmark     (CC and RESPONS modules)
  Janusz Cukras,            University of Warsaw,         Poland      (MChD in RESPONS)
  Paal Dahle,               University of Oslo,           Norway      (Parallelization)
  Erik K. Dalskov,          UNI-C,                        Denmark     (SOPPA)
  Thomas Enevoldsen,        Univ. of Southern Denmark,    Denmark     (SOPPA)
  Janus J. Eriksen,         Aarhus University,            Denmark     (Polarizable embedding, TDA)
  Rasmus Faber,             Technical Univ. of Denmark,   Denmark     (Vib.avg. NMR w. SOPPA, parallel AO-SOPPA, CVS-CC and EOMCC)
  Tobias Fahleson,          KTH Stockholm,                Sweden      (Damped cubic response)
  Berta Fernandez,          U. of Santiago de Compostela, Spain       (Doublet spin, ESR in RESPONS)
  Lara Ferrighi,            Aarhus University,            Denmark     (PCM Cubic response)
  Heike Fliegl,             University of Oslo,           Norway      (CCSD(R12))
  Luca Frediani,            UiT The Arctic U. of Norway,  Norway      (PCM)
  Emmanuel Fromager,        Univ. Strasbourg,             France      (MC-srDFT)
  Bin Gao,                  UiT The Arctic U. of Norway,  Norway      (Gen1Int library)
  Andre S. P. Gomes,        CNRS/Universite de Lille,     France      (Frozen density embedding)
  Christof Haettig,         Ruhr-University Bochum,       Germany     (CC module)
  Kasper Hald,              Aarhus University,            Denmark     (CC module)
  Asger Halkier,            Aarhus University,            Denmark     (CC module)
  Frederik Beyer Hansen,    University of Copenhagen,     Denmark     (Parallel AO-SOPPA)
  Erik D. Hedegaard,        Univ. of Southern Denmark,    Denmark     (Polarizable embedding, QM/MM, and MC-srDFT)
  Hanne Heiberg,            University of Oslo,           Norway      (Geometry analysis, selected one-electron integrals)
  Trygve Helgaker,          University of Oslo,           Norway      (DALTON; ABACUS, ERI, DFT modules, London, and much more)
  Alf Christian Hennum,     University of Oslo,           Norway      (Parity violation)
  Hinne Hettema,            University of Auckland,       New Zealand (Quadratic response in RESPONS; SIRIUS supersymmetry)
  Eirik Hjertenaes,         NTNU,                         Norway      (Cholesky decomposition)
  Pi A. B. Haase,           University of Copenhagen,     Denmark     (Triplet AO-SOPPA)
  Maria Francesca Iozzi,    University of Oslo,           Norway      (RPA)
  Christoph Jacob           TU Braunschweig               Germany     (Frozen density embedding)
  Brano Jansik              Technical Univ. of Ostrava    Czech Rep.  (DFT cubic response)
  Hans Joergen Aa. Jensen,  Univ. of Southern Denmark,    Denmark     (DALTON; SIRIUS, RESPONS, ABACUS, MC-srDFT, and much more)
  Dan Jonsson,              UiT The Arctic U. of Norway,  Norway      (Cubic response in RESPONS module)
  Poul Joergensen,          Aarhus University,            Denmark     (RESPONS, ABACUS, and CC modules)
  Maciej Kaminski,          University of Warsaw,         Poland      (CPPh in RESPONS)
  Joanna Kauczor,           Linkoeping University,        Sweden      (Complex polarization propagator (CPP) module)
  Sheela Kirpekar,          Univ. of Southern Denmark,    Denmark     (Mass-velocity & Darwin integrals)
  Erik Kjellgren,           Univ. of Southern Denmark,    Denmark     (MC-srDFT)
  Wim Klopper,              KIT Karlsruhe,                Germany     (R12 code in CC, SIRIUS, and ABACUS modules)
  Stefan Knecht,            ETH Zurich,                   Switzerland (Parallel CI and MCSCF, MC-srDFT)
  Rika Kobayashi,           Australian National Univ.,    Australia   (DIIS in CC, London in MCSCF)
  Henrik Koch,              NTNU,                         Norway      (CC module, Cholesky decomposition)
  Jacob Kongsted,           Univ. of Southern Denmark,    Denmark     (Polarizable embedding, polarizable density embedding, QM/MM)
  Andrea Ligabue,           University of Modena,         Italy       (CTOCD, AOSOPPA)
  Nanna H. List             Univ. of Southern Denmark,    Denmark     (Polarizable embedding)
  Ola B. Lutnaes,           University of Oslo,           Norway      (DFT Hessian)
  Juan I. Melo,             University of Buenos Aires,   Argentina   (LRESC, Relativistic Effects on NMR Shieldings)
  Kurt V. Mikkelsen,        University of Copenhagen,     Denmark     (MC-SCRF and QM/MM)
  Rolf H. Myhre,            NTNU,                         Norway      (Subsystems and CC3)
  Christian Neiss,          Univ. Erlangen-Nuernberg,     Germany     (CCSD(R12))
  Christian B. Nielsen,     University of Copenhagen,     Denmark     (QM/MM)
  Patrick Norman,           KTH Stockholm,                Sweden      (Cubic response and complex frequency response in RESPONS)
  Jeppe Olsen,              Aarhus University,            Denmark     (SIRIUS CI/density modules)
  Jogvan Magnus H. Olsen,   Aarhus University,            Denmark     (Polarizable embedding and polarizable density embedding)
  Anders Osted,             Copenhagen University,        Denmark     (QM/MM)
  Martin J. Packer,         University of Sheffield,      UK          (SOPPA)
  Filip Pawlowski,          Kazimierz Wielki University,  Poland      (CC3)
  Morten N. Pedersen,       Univ. of Southern Denmark,    Denmark     (Polarizable embedding)
  Thomas B. Pedersen,       University of Oslo,           Norway      (Cholesky decomposition)
  Patricio F. Provasi,      University of Northeastern,   Argentina   (Analysis of coupling constants in localized orbitals)
  Peter Reinholdt,          Univ. of Southern Denmark,    Denmark     (Polarizable embedding and polarizable density embedding)
  Zilvinas Rinkevicius,     KTH Stockholm,                Sweden      (open-shell DFT, ESR)
  Elias Rudberg,            KTH Stockholm,                Sweden      (DFT grid and basis info)
  Torgeir A. Ruden,         University of Oslo,           Norway      (Numerical derivatives in ABACUS)
  Kenneth Ruud,             UiT The Arctic U. of Norway,  Norway      (DALTON; ABACUS magnetic properties and much more)
  Pawel Salek,              KTH Stockholm,                Sweden      (DALTON; DFT code)
  Claire C. M. Samson       University of Karlsruhe       Germany     (Boys localization, r12 integrals in ERI)
  Alfredo Sanchez de Meras, University of Valencia,       Spain       (CC module, Cholesky decomposition)
  Trond Saue,               Paul Sabatier University,     France      (direct Fock matrix construction)
  Stephan P. A. Sauer,      University of Copenhagen,     Denmark     (SOPPA(CCSD), SOPPA prop., AOSOPPA, vibrational g-factors)
  Bernd Schimmelpfennig,    Forschungszentrum Karlsruhe,  Germany     (AMFI module)
  Anna K. Schnack-Petersen, University of Copenhagen,     Denmark     (RPA(D) and HRPA(D) properties in AOSOPPA)
  Kristian Sneskov,         Aarhus University,            Denmark     (Polarizable embedding, QM/MM)
  Arnfinn H. Steindal,      UiT The Arctic U. of Norway,  Norway      (parallel QM/MM, polarizable embedding)
  Casper Steinmann,         Aalborg University,           Denmark     (QFIT, polarizable embedding)
  K. O. Sylvester-Hvid,     University of Copenhagen,     Denmark     (MC-SCRF)
  Peter R. Taylor,          VLSCI/Univ. of Melbourne,     Australia   (Symmetry handling ABACUS, integral transformation)
  Andrew M. Teale,          University of Nottingham,     England     (DFT-AC, DFT-D)
  David P. Tew,             University of Bristol,        England     (CCSD(R12))
  Julien Toulouse,          Sorbonne Univ.,               France      (MC-srDFT)
  Olav Vahtras,             KTH Stockholm,                Sweden      (Triplet response, spin-orbit, ESR, TDDFT, open-shell DFT)
  Lucas Visscher,           Vrije Universiteit Amsterdam, Netherlands (Frozen density embedding)
  David J. Wilson,          La Trobe University,          Australia   (DFT Hessian and DFT magnetizabilities)
  Hans Agren,               KTH Stockholm,                Sweden      (SIRIUS module, RESPONS, MC-SCRF solvation)
 --------------------------------------------------------------------------------

     Date and time (Linux)  : Fri Sep 29 06:25:54 2023
     Host name              : sn-mem                                  

 * Work memory size             :    64000000 =  488.28 megabytes.

 * Directories for basis set searches:
   1) /gpfs/projects/rjh/adrian/august_no_symmetry/dalton/hf/PH3/dipole
   2) /gpfs/projects/rjh/adrian/dalton/build/basis


Compilation information
-----------------------

 Who compiled             | ahurtado
 Host                     | sn-mem
 System                   | Linux-3.10.0-1160.24.1.el7.x86_64
 CMake generator          | Unix Makefiles
 Processor                | x86_64
 64-bit integers          | OFF
 MPI                      | ON
 Fortran compiler         | /gpfs/software/intel/oneAPI/2021_4/mpi/2021.4.0/bi
                          | n/mpif90
 Fortran compiler version | GNU Fortran (GCC) 11.2.0
 C compiler               | /gpfs/software/intel/oneAPI/2021_4/mpi/2021.4.0/bi
                          | n/mpicc
 C compiler version       | gcc (GCC) 11.2.0
 C++ compiler             | /gpfs/software/intel/oneAPI/2021_4/mpi/2021.4.0/bi
                          | n/mpicxx
 C++ compiler version     | unknown
 BLAS                     | /gpfs/software/intel/oneAPI/2021_4/mkl/2021.4.0/li
                          | b/intel64/libmkl_gf_lp64.so;/gpfs/software/intel/o
                          | neAPI/2021_4/mkl/2021.4.0/lib/intel64/libmkl_seque
                          | ntial.so;/gpfs/software/intel/oneAPI/2021_4/mkl/20
                          | 21.4.0/lib/intel64/libmkl_core.so;/usr/lib64/libpt
                          | hread.so;/usr/lib64/libm.so
 LAPACK                   | /gpfs/software/intel/oneAPI/2021_4/mkl/2021.4.0/li
                          | b/intel64/libmkl_lapack95_lp64.a;/gpfs/software/in
                          | tel/oneAPI/2021_4/mkl/2021.4.0/lib/intel64/libmkl_
                          | gf_lp64.so
 Static linking           | OFF
 Last Git revision        | 66052b3af5ea7225e31178bf9a8b031913c72190
 Git branch               | (HEAD detached at Dalton2020.0)
 Configuration time       | 2023-01-11 13:33:37.731835

 * MPI parallel run using 5 processes.


   Content of the .dal input file
 ----------------------------------

**DALTON INPUT
.RUN RESPONSE
.DIRECT
**WAVE FUNCTIONS
.HF
**PROPERTIES
**RESPONSE
*QUADRA
.DIPLEN
.FREQUENCIES
5
0.0 0.0164705 0.032941 0.0494115 0.065882
**END OF DALTON INPUT


   Content of the .mol file
 ----------------------------

BASIS
aug-cc-pVDZ
blah
blah
Atomtype=2 Angstrom Charge=0 Nosymmmetry
Charge=15 Atoms=1
P_a 0.000000000000 0.000000000000 0.000000000000
Charge=1 Atoms=3
H_a 0.000000000000 -1.193199998467 -0.771699999462
H_b 1.033300002415 0.596600001880 -0.771699999462
H_c -1.033300002415 0.596600001880 -0.771699999462


       *******************************************************************
       *********** Output from DALTON general input processing ***********
       *******************************************************************

 --------------------------------------------------------------------------------
   Overall default print level:    0
   Print level for DALTON.STAT:    1

    Parallel calculation using MPI
    AO-direct calculation (in sections where implemented)
    HERMIT 1- and 2-electron integral sections will be executed
    "Old" integral transformation used (limited to max 255 basis functions)
    Wave function sections will be executed (SIRIUS module)
    Dynamic molecular response properties section will be executed (RESPONSE module)
 --------------------------------------------------------------------------------


   ****************************************************************************
   *************** Output of molecule and basis set information ***************
   ****************************************************************************


    The two title cards from your ".mol" input:
    ------------------------------------------------------------------------
 1: blah                                                                    
 2: blah                                                                    
    ------------------------------------------------------------------------

  Coordinates are entered in Angstrom and converted to atomic units.
          - Conversion factor : 1 bohr = 0.52917721 A

  Atomic type no.    1
  --------------------
  Nuclear charge:  15.00000
  Number of symmetry independent centers:    1
  Number of basis sets to read;    2
  Basis set file used for this atomic type with Z =  15 :
     "/gpfs/projects/rjh/adrian/dalton/build/basis/aug-cc-pVDZ"

  Atomic type no.    2
  --------------------
  Nuclear charge:   1.00000
  Number of symmetry independent centers:    3
  Number of basis sets to read;    2
  Basis set file used for this atomic type with Z =   1 :
     "/gpfs/projects/rjh/adrian/dalton/build/basis/aug-cc-pVDZ"


                         SYMGRP: Point group information
                         -------------------------------

@    Point group: C1 


                                 Isotopic Masses
                                 ---------------

                           P_a        30.973763
                           H_a         1.007825
                           H_b         1.007825
                           H_c         1.007825

                       Total mass:    33.997238 amu
                       Natural abundance:  99.955 %

 Center-of-mass coordinates (a.u.):    0.000000    0.000000   -0.129691
 Center-of-mass coordinates (Angs):    0.000000    0.000000   -0.068630


  Atoms and basis sets
  --------------------

  Number of atom types :    2
  Total number of atoms:    4

  Basis set used is "aug-cc-pVDZ" from the basis set library.

  label    atoms   charge   prim   cont     basis
  ----------------------------------------------------------------------
  P_          1   15.0000    50    27      [13s9p2d|5s4p2d]                                   
  H_          3    1.0000    11     9      [5s2p|3s2p]                                        
  ----------------------------------------------------------------------
  total:      4   18.0000    83    54
  ----------------------------------------------------------------------
  Spherical harmonic basis used.

  Threshold for neglecting AO integrals:  1.00D-12


  Cartesian Coordinates (a.u.)
  ----------------------------

  Total number of coordinates:   12
  P_a     :     1  x   0.0000000000    2  y   0.0000000000    3  z   0.0000000000
  H_a     :     4  x   0.0000000000    5  y  -2.2548212094    6  z  -1.4583016496
  H_b     :     7  x   1.9526540095    8  y   1.1274106097    9  z  -1.4583016496
  H_c     :    10  x  -1.9526540095   11  y   1.1274106097   12  z  -1.4583016496


   Interatomic separations (in Angstrom):
   --------------------------------------

            P_a         H_a         H_b         H_c   
            ------      ------      ------      ------
 P_a   :    0.000000
 H_a   :    1.421002    0.000000
 H_b   :    1.420972    2.066662    0.000000
 H_c   :    1.420972    2.066662    2.066600    0.000000


  Max    interatomic separation is    2.0667 Angstrom (    3.9054 Bohr)
  between atoms    3 and    2, "H_b   " and "H_a   ".

  Min HX interatomic separation is    1.4210 Angstrom (    2.6852 Bohr)


  Bond distances (Angstrom):
  --------------------------

                  atom 1     atom 2       distance
                  ------     ------       --------
  bond distance:  H_a        P_a          1.421002
  bond distance:  H_b        P_a          1.420972
  bond distance:  H_c        P_a          1.420972


  Bond angles (degrees):
  ----------------------

                  atom 1     atom 2     atom 3         angle
                  ------     ------     ------         -----
  bond angle:     H_a        P_a        H_b           93.303
  bond angle:     H_a        P_a        H_c           93.303
  bond angle:     H_b        P_a        H_c           93.301




 Principal moments of inertia (u*A**2) and principal axes
 --------------------------------------------------------

   IA       3.792542          0.000000    1.000000   -0.000000
   IB       3.792715          1.000000    0.000000    0.000000
   IC       4.304428          0.000000    0.000000    1.000000


 Rotational constants
 --------------------

               A                   B                   C

         133255.9944         133249.9191         117409.1033 MHz
            4.444942            4.444739            3.916346 cm-1


@  Nuclear repulsion energy :   17.526280706353 Hartree


                     .---------------------------------------.
                     | Starting in Integral Section (HERMIT) |
                     `---------------------------------------'



 ***************************************************************************************
 ****************** Output from **INTEGRALS input processing (HERMIT) ******************
 ***************************************************************************************


 - Using defaults, no **INTEGRALS input found

 Default print level:        1

 Calculation of one-electron Hamiltonian integrals.

 Center of mass  (bohr):      0.000000000000      0.000000000297     -0.129691081968
 Operator center (bohr):      0.000000000000      0.000000000000      0.000000000000
 Gauge origin    (bohr):      0.000000000000      0.000000000000      0.000000000000
 Dipole origin   (bohr):      0.000000000000      0.000000000000      0.000000000000


     ************************************************************************
     ************************** Output from HERINT **************************
     ************************************************************************



                      Nuclear contribution to dipole moments
                      --------------------------------------

                 au               Debye          C m (/(10**-30)

      x      0.00000000         0.00000000         0.00000000
      y      0.00000001         0.00000003         0.00000008
      z     -4.37490495       -11.11989850       -37.09198882


  Total CPU  time used in HERMIT:   0.07 seconds
  Total wall time used in HERMIT:   0.08 seconds


                        .----------------------------------.
                        | End of Integral Section (HERMIT) |
                        `----------------------------------'



                   .--------------------------------------------.
                   | Starting in Wave Function Section (SIRIUS) |
                   `--------------------------------------------'


 *** Output from Huckel module :

     Using EWMO model:          T
     Using EHT  model:          F
     Number of Huckel orbitals each symmetry:   17

 EWMO - Energy Weighted Maximum Overlap - is a Huckel type method,
        which normally is better than Extended Huckel Theory.
 Reference: Linderberg and Ohrn, Propagators in Quantum Chemistry (Wiley, 1973)

 Huckel EWMO eigenvalues for symmetry :  1
          -79.989138      -7.539621      -5.419453      -5.419453      -5.419331
           -1.162139      -0.617917      -0.617908      -0.435032      -0.171097
           -0.171096      -0.123482      -0.055556      -0.055556      -0.055288
           -0.028356      -0.028355

 **********************************************************************
 *SIRIUS* a direct, restricted step, second order MCSCF program       *
 **********************************************************************

 
     Date and time (Linux)  : Fri Sep 29 06:25:54 2023
     Host name              : sn-mem                                  

 Title lines from ".mol" input file:
     blah                                                                    
     blah                                                                    

 Print level on unit LUPRI =   2 is   0
 Print level on unit LUW4  =   2 is   5

@    Restricted, closed shell Hartree-Fock calculation.

@    Time-dependent Hartree-Fock calculation (random phase approximation).
 Fock matrices are calculated directly and in parallel without use of integrals on disk.

 Initial molecular orbitals are obtained according to
 ".MOSTART EWMO  " input option

     Wave function specification
     ============================
@    Wave function type        --- HF ---
@    Number of closed shell electrons          18
@    Number of electrons in active shells       0
@    Total charge of the molecule               0

@    Spin multiplicity and 2 M_S                1         0
@    Total number of symmetries                 1 (point group: C1 )
@    Reference state symmetry                   1 (irrep name : A  )

     Orbital specifications
     ======================
@    Abelian symmetry species          All |    1
@                                          |  A  
                                       --- |  ---
@    Occupied SCF orbitals               9 |    9
@    Secondary orbitals                 45 |   45
@    Total number of orbitals           54 |   54
@    Number of basis functions          54 |   54

     Optimization information
     ========================
@    Number of configurations                 1
@    Number of orbital rotations            405
     ------------------------------------------
@    Total number of variables              406

     Maximum number of Fock   iterations      0
     Maximum number of DIIS   iterations     60
     Maximum number of QC-SCF iterations     60
     Threshold for SCF convergence     1.00D-05


 ***********************************************
 ***** DIIS acceleration of SCF iterations *****
 ***********************************************

 C1-DIIS algorithm; max error vectors =    8

 Iter      Total energy        Error norm    Delta(E)  DIIS dim.
 -----------------------------------------------------------------------------
   1  Screening settings (-IFTHRS, JTDIIS, DIFDEN, times)   -7    1    T  5.67D-02  5.70D-02
@  1    -342.346823455        1.09705D+00   -3.42D+02    1
      Virial theorem: -V/T =      2.002995
@    MULPOP   P_a     0.17; H_a    -0.06; H_b    -0.06; H_c    -0.06; 
   1  Level shift: doubly occupied orbital energies shifted by -2.00D-01
 -----------------------------------------------------------------------------
   2  Screening settings (-IFTHRS, JTDIIS, DIFDEN, times)   -7    2    T  4.30D-02  4.30D-02
@  2    -342.464829674        2.19801D-01   -1.18D-01    2
      Virial theorem: -V/T =      1.999770
@    MULPOP   P_a    -0.26; H_a     0.09; H_b     0.09; H_c     0.09; 
   2  Level shift: doubly occupied orbital energies shifted by -5.00D-02
 -----------------------------------------------------------------------------
   3  Screening settings (-IFTHRS, JTDIIS, DIFDEN, times)  -11    3    F  4.26D-02  4.30D-02
@  3    -342.471126844        6.27508D-02   -6.30D-03    3
      Virial theorem: -V/T =      2.000399
@    MULPOP   P_a    -0.49; H_a     0.16; H_b     0.16; H_c     0.16; 
   3  Level shift: doubly occupied orbital energies shifted by -2.50D-02
 -----------------------------------------------------------------------------
   4  Screening settings (-IFTHRS, JTDIIS, DIFDEN, times)  -11    4    T  4.34D-02  4.30D-02
@  4    -342.471922398        1.53989D-02   -7.96D-04    4
      Virial theorem: -V/T =      2.000354
@    MULPOP   P_a    -0.52; H_a     0.17; H_b     0.17; H_c     0.17; 
 -----------------------------------------------------------------------------
   5  Screening settings (-IFTHRS, JTDIIS, DIFDEN, times)  -11    5    T  4.49D-02  4.50D-02
@  5    -342.471994301        3.20105D-03   -7.19D-05    5
      Virial theorem: -V/T =      2.000380
@    MULPOP   P_a    -0.52; H_a     0.17; H_b     0.17; H_c     0.17; 
 -----------------------------------------------------------------------------
   6  Screening settings (-IFTHRS, JTDIIS, DIFDEN, times)  -11    6    T  4.69D-02  4.70D-02
@  6    -342.471997780        5.83373D-04   -3.48D-06    6
      Virial theorem: -V/T =      2.000379
@    MULPOP   P_a    -0.52; H_a     0.17; H_b     0.17; H_c     0.17; 
 -----------------------------------------------------------------------------
   7  Screening settings (-IFTHRS, JTDIIS, DIFDEN, times)  -11    7    T  4.30D-02  4.30D-02
@  7    -342.471997889        9.86983D-05   -1.10D-07    7
      Virial theorem: -V/T =      2.000381
@    MULPOP   P_a    -0.52; H_a     0.17; H_b     0.17; H_c     0.17; 
 -----------------------------------------------------------------------------
   8  Screening settings (-IFTHRS, JTDIIS, DIFDEN, times)  -11    8    T  4.42D-02  4.40D-02
@  8    -342.471997892        1.62448D-05   -2.66D-09    8
      Virial theorem: -V/T =      2.000381
@    MULPOP   P_a    -0.52; H_a     0.17; H_b     0.17; H_c     0.17; 
 -----------------------------------------------------------------------------
   9  Screening settings (-IFTHRS, JTDIIS, DIFDEN, times)  -11    9    T  4.47D-02  4.50D-02
@  9    -342.471997892        2.69202D-06   -6.33D-11    8

@ *** DIIS converged in   9 iterations !
@     Converged SCF energy, gradient:   -342.471997892174    2.69D-06
    - total time used in SIRFCK :              0.00 seconds


 *** SCF orbital energy analysis ***

 Only the 20 lowest virtual orbital energies printed in each symmetry.

 Number of electrons :   18
 Orbital occupations :    9

 Sym       Hartree-Fock orbital energies

1 A     -79.95544928    -7.49616311    -5.39002728    -5.39002718    -5.38863549
         -0.85667665    -0.51884434    -0.51884317    -0.38804843     0.03454409
          0.07053748     0.07053805     0.09884018     0.09884075     0.10256552
          0.16650790     0.20602799     0.20602871     0.26287537     0.26496544
          0.26496623     0.35911574     0.39406799     0.39407071     0.47377684
          0.47464268     0.47464380     0.48484224     0.48484671

    E(LUMO) :     0.03454409 au (symmetry 1)
  - E(HOMO) :    -0.38804843 au (symmetry 1)
  ------------------------------------------
    gap     :     0.42259252 au

 --- Writing SIRIFC interface file

 CPU and wall time for SCF :       0.431       0.435


                       .-----------------------------------.
                       | --- Final results from SIRIUS --- |
                       `-----------------------------------'


@    Spin multiplicity:           1
@    Spatial symmetry:            1 ( irrep  A   in C1  )
@    Total charge of molecule:    0

@    Final HF energy:            -342.471997892174                 
@    Nuclear repulsion:            17.526280706353
@    Electronic energy:          -359.998278598527

@    Final gradient norm:           0.000002692017

 
     Date and time (Linux)  : Fri Sep 29 06:25:54 2023
     Host name              : sn-mem                                  

File label for MO orbitals:  29Sep23   FOCKDIIS

 (Only coefficients > 0.0100 are printed.)

 Molecular orbitals for symmetry species 1  (A  )
 ------------------------------------------------

    Orbital         1        2        3        4        5        6        7
   1 P_a :1s    -1.0001   0.0015  -0.0000   0.0000   0.0002   0.0006  -0.0000
   2 P_a :1s    -0.0006   1.0109  -0.0000   0.0000  -0.0051  -0.0051  -0.0000
   3 P_a :1s    -0.0013   0.0269  -0.0000  -0.0000   0.0055   0.8078   0.0000
   4 P_a :1s     0.0048  -0.0925   0.0000  -0.0000  -0.0103  -0.1175   0.0000
   6 P_a :2px    0.0000  -0.0000  -1.0003   0.0000   0.0000   0.0000  -0.0000
   7 P_a :2py    0.0000  -0.0000   0.0000   1.0003  -0.0000  -0.0000   0.0181
   8 P_a :2pz    0.0001  -0.0073   0.0000  -0.0000  -1.0000   0.0122  -0.0000
  10 P_a :2py   -0.0000   0.0000  -0.0000   0.0025  -0.0000   0.0000  -0.6362
  11 P_a :2pz    0.0001  -0.0044   0.0000   0.0000   0.0009  -0.1349   0.0000
  12 P_a :2px   -0.0000   0.0000   0.0121   0.0000   0.0000  -0.0000   0.0000
  13 P_a :2py    0.0000  -0.0000   0.0000  -0.0121   0.0000  -0.0000  -0.0115
  14 P_a :2pz   -0.0017   0.0337  -0.0000   0.0000   0.0045   0.0548  -0.0000
  19 P_a :3d1-   0.0000  -0.0000  -0.0000  -0.0008   0.0000  -0.0000   0.0771
  22 P_a :3d2+  -0.0000   0.0000   0.0000   0.0002   0.0000  -0.0000  -0.0567
  24 P_a :3d1-  -0.0000   0.0000  -0.0000   0.0041  -0.0000   0.0000   0.0658
  27 P_a :3d2+   0.0000  -0.0000   0.0000  -0.0015   0.0000   0.0000  -0.0342
  28 H_a :1s     0.0000   0.0003   0.0000  -0.0005   0.0008   0.3036   0.6112
  29 H_a :1s    -0.0015   0.0283   0.0000  -0.0111   0.0030  -0.1178  -0.3100
  30 H_a :1s    -0.0001   0.0011   0.0000   0.0008   0.0005   0.0023   0.0239
  32 H_a :2py    0.0000  -0.0004  -0.0000  -0.0001   0.0002   0.0180   0.0140
  33 H_a :2pz    0.0000  -0.0004  -0.0000  -0.0001   0.0003   0.0111   0.0145
  35 H_a :2py   -0.0005   0.0091   0.0000  -0.0018   0.0010   0.0009  -0.0422
  36 H_a :2pz   -0.0002   0.0033   0.0000  -0.0016  -0.0007   0.0010  -0.0287
  37 H_b :1s     0.0000   0.0003  -0.0004   0.0003   0.0008   0.3036  -0.3056
  38 H_b :1s    -0.0015   0.0283  -0.0096   0.0056   0.0030  -0.1178   0.1550
  39 H_b :1s    -0.0001   0.0011   0.0007  -0.0004   0.0005   0.0023  -0.0120
  40 H_b :2px   -0.0000   0.0004   0.0001   0.0000  -0.0002  -0.0156   0.0087
  42 H_b :2pz    0.0000  -0.0004  -0.0001   0.0000   0.0003   0.0111  -0.0072
  43 H_b :2px    0.0004  -0.0079   0.0010  -0.0014  -0.0009  -0.0008  -0.0234
  45 H_b :2pz   -0.0002   0.0033  -0.0014   0.0008  -0.0007   0.0010   0.0143
  46 H_c :1s     0.0000   0.0003   0.0004   0.0003   0.0008   0.3036  -0.3056
  47 H_c :1s    -0.0015   0.0283   0.0096   0.0056   0.0030  -0.1178   0.1550
  48 H_c :1s    -0.0001   0.0011  -0.0007  -0.0004   0.0005   0.0023  -0.0120
  49 H_c :2px    0.0000  -0.0004   0.0001  -0.0000   0.0002   0.0156  -0.0087
  51 H_c :2pz    0.0000  -0.0004   0.0001   0.0000   0.0003   0.0111  -0.0072
  52 H_c :2px   -0.0004   0.0079   0.0010   0.0014   0.0009   0.0008   0.0234
  54 H_c :2pz   -0.0002   0.0033   0.0014   0.0008  -0.0007   0.0010   0.0143

    Orbital         8        9       10       11       12       13       14
   2 P_a :1s     0.0000  -0.0016   0.0409   0.0000  -0.0000   0.0000  -0.0000
   3 P_a :1s     0.0000  -0.4165  -0.0888   0.0000  -0.0000   0.0000  -0.0000
   4 P_a :1s    -0.0000  -0.1828  -1.0143  -0.0000   0.0000  -0.0000   0.0001
   5 P_a :1s    -0.0000  -0.0545  -3.4993   0.0000   0.0000  -0.0000   0.0002
   6 P_a :2px   -0.0181   0.0000  -0.0000  -0.0000   0.0026  -0.0078   0.0000
   8 P_a :2pz    0.0000   0.0105  -0.0060  -0.0000   0.0000  -0.0000   0.0000
   9 P_a :2px    0.6362   0.0000  -0.0000  -0.0000   0.1860   0.0861  -0.0000
  10 P_a :2py    0.0000  -0.0000   0.0000   0.1861   0.0000   0.0000   0.0861
  11 P_a :2pz    0.0000  -0.7779   0.0516   0.0000   0.0000  -0.0000   0.0000
  12 P_a :2px    0.0115  -0.0000   0.0000   0.0000   0.0512   1.1776  -0.0000
  13 P_a :2py    0.0000  -0.0000  -0.0000   0.0512  -0.0000   0.0000   1.1777
  14 P_a :2pz    0.0000   0.0669   0.7222  -0.0000   0.0000   0.0000  -0.0001
  15 P_a :2px   -0.0015  -0.0000  -0.0000  -0.0000   1.1555   2.7368  -0.0000
  16 P_a :2py   -0.0000  -0.0000  -0.0000   1.1555   0.0000   0.0000   2.7368
  17 P_a :2pz    0.0000  -0.0375   0.8434  -0.0000   0.0000   0.0000  -0.0001
  18 P_a :3d2-   0.0567   0.0000  -0.0000   0.0000  -0.0008  -0.0437   0.0000
  19 P_a :3d1-  -0.0000   0.0000   0.0000  -0.0034  -0.0000   0.0000   0.0632
  21 P_a :3d1+  -0.0771   0.0000  -0.0000  -0.0000  -0.0034   0.0632  -0.0000
  22 P_a :3d2+  -0.0000  -0.0000  -0.0000  -0.0008  -0.0000  -0.0000  -0.0437
  23 P_a :3d2-   0.0343  -0.0000   0.0000  -0.0000   0.0425   0.1970  -0.0000
  24 P_a :3d1-  -0.0000   0.0000   0.0000  -0.0095   0.0000  -0.0000  -0.5335
  25 P_a :3d0   -0.0000   0.0097  -0.0944  -0.0000  -0.0000  -0.0000   0.0000
  26 P_a :3d1+  -0.0658   0.0000   0.0000  -0.0000  -0.0095  -0.5334   0.0000
  27 P_a :3d2+   0.0000  -0.0000  -0.0000   0.0425   0.0000   0.0000   0.1970
  28 H_a :1s    -0.0000   0.2276  -0.0070  -0.0294   0.0000   0.0000   0.1807
  29 H_a :1s     0.0000  -0.0147   0.7144  -0.0188  -0.0000   0.0000   1.8760
  30 H_a :1s    -0.0000   0.0063   1.2893   3.8341   0.0000   0.0000   3.2365
  31 H_a :2px    0.0062  -0.0000   0.0000   0.0000   0.0001   0.0106  -0.0000
  32 H_a :2py    0.0000   0.0093  -0.0039  -0.0132   0.0000  -0.0000   0.0064
  34 H_a :2px   -0.0118  -0.0000  -0.0000  -0.0000   0.0354  -0.1861   0.0000
  35 H_a :2py    0.0000   0.0073   0.2001   0.1021  -0.0000   0.0000   0.2802
  36 H_a :2pz    0.0000   0.0052   0.0352   0.0529  -0.0000   0.0000   0.2310
  37 H_b :1s     0.5293   0.2276  -0.0070   0.0147   0.0254  -0.1565  -0.0903
  38 H_b :1s    -0.2685  -0.0147   0.7144   0.0094   0.0163  -1.6247  -0.9381
  39 H_b :1s     0.0207   0.0063   1.2893  -1.9171  -3.3205  -2.8030  -1.6183
  42 H_b :2pz    0.0125  -0.0043  -0.0021   0.0044   0.0075   0.0031   0.0018
  43 H_b :2px    0.0287  -0.0063  -0.1733   0.0289   0.0854   0.1636   0.2020
  44 H_b :2py    0.0234  -0.0037  -0.1000   0.0521   0.0289   0.2019  -0.0695
  45 H_b :2pz   -0.0248   0.0052   0.0352  -0.0264  -0.0458  -0.2001  -0.1155
  46 H_c :1s    -0.5293   0.2276  -0.0070   0.0147  -0.0254   0.1565  -0.0903
  47 H_c :1s     0.2685  -0.0147   0.7144   0.0094  -0.0163   1.6247  -0.9381
  48 H_c :1s    -0.0207   0.0063   1.2893  -1.9171   3.3205   2.8030  -1.6183
  51 H_c :2pz   -0.0125  -0.0043  -0.0021   0.0044  -0.0075  -0.0031   0.0018
  52 H_c :2px    0.0287   0.0063   0.1733  -0.0289   0.0854   0.1636  -0.2020
  53 H_c :2py   -0.0234  -0.0037  -0.1000   0.0521  -0.0289  -0.2019  -0.0695
  54 H_c :2pz    0.0248   0.0052   0.0352  -0.0264   0.0458   0.2001  -0.1155

    Orbital        15       16       17       18       19
   1 P_a :1s    -0.0053  -0.0226  -0.0000  -0.0000  -0.0014
   2 P_a :1s    -0.0356  -0.1708  -0.0000  -0.0000  -0.0132
   3 P_a :1s     0.0141  -0.7378  -0.0000  -0.0000  -0.1050
   4 P_a :1s     0.2147   2.7600   0.0003   0.0000   0.0370
   5 P_a :1s     0.9627   8.1435   0.0006   0.0000  -1.1659
   8 P_a :2pz   -0.0051   0.0205   0.0000   0.0000  -0.0009
   9 P_a :2px    0.0000  -0.0000   0.0000  -0.5617   0.0000
  10 P_a :2py   -0.0000   0.0000  -0.5617  -0.0000  -0.0001
  11 P_a :2pz    0.2139   0.2436  -0.0000   0.0000   0.0437
  12 P_a :2px    0.0000   0.0000  -0.0001   1.7462   0.0000
  13 P_a :2py   -0.0000   0.0001   1.7462   0.0001  -0.0002
  14 P_a :2pz   -0.0085  -2.2848  -0.0002  -0.0000  -0.0656
  15 P_a :2px   -0.0000   0.0000  -0.0002   2.4042  -0.0000
  16 P_a :2py   -0.0001  -0.0001   2.4042   0.0002   0.0001
  17 P_a :2pz   -1.5401  -1.5126  -0.0001  -0.0000   0.1309
  18 P_a :3d2-   0.0000   0.0000  -0.0000   0.0885   0.0000
  19 P_a :3d1-  -0.0000  -0.0000  -0.0753  -0.0000  -0.0000
  20 P_a :3d0   -0.0140  -0.0118   0.0000  -0.0000  -0.0988
  21 P_a :3d1+   0.0000   0.0000   0.0000  -0.0753   0.0000
  22 P_a :3d2+   0.0000  -0.0000   0.0885   0.0000  -0.0000
  23 P_a :3d2-   0.0000   0.0000  -0.0000   0.6456   0.0000
  24 P_a :3d1-   0.0000  -0.0000  -1.0744  -0.0001  -0.0003
  25 P_a :3d0    0.2217   0.2212   0.0000   0.0000  -0.4750
  26 P_a :3d1+   0.0000   0.0000   0.0001  -1.0744   0.0000
  27 P_a :3d2+  -0.0000  -0.0000   0.6456   0.0000  -0.0002
  28 H_a :1s    -0.0355   0.0702  -0.3273  -0.0000   0.0786
  29 H_a :1s    -0.3075  -2.1841   2.5921   0.0002   0.2904
  30 H_a :1s    -0.2312  -1.8084   3.4996   0.0003   0.1890
  32 H_a :2py   -0.0058  -0.0148  -0.0048  -0.0000   0.0015
  33 H_a :2pz   -0.0108  -0.0043   0.0011   0.0000   0.0052
  34 H_a :2px   -0.0000  -0.0000   0.0000  -0.3120  -0.0000
  35 H_a :2py   -0.0488  -0.6942   0.7970   0.0001  -0.1652
  36 H_a :2pz    0.1505  -0.1719   0.6262   0.0000   0.2071
  37 H_b :1s    -0.0355   0.0702   0.1636   0.2835   0.0787
  38 H_b :1s    -0.3074  -2.1842  -1.2962  -2.2451   0.2905
  39 H_b :1s    -0.2311  -1.8082  -1.7497  -3.0310   0.1886
  40 H_b :2px    0.0050   0.0128   0.0017  -0.0058  -0.0013
  42 H_b :2pz   -0.0108  -0.0043  -0.0006  -0.0010   0.0052
  43 H_b :2px    0.0423   0.6012   0.4802   0.5198   0.1429
  44 H_b :2py    0.0244   0.3471  -0.0348   0.4802   0.0827
  45 H_b :2pz    0.1505  -0.1719  -0.3131  -0.5423   0.2069
  46 H_c :1s    -0.0355   0.0702   0.1637  -0.2835   0.0787
  47 H_c :1s    -0.3074  -2.1842  -1.2965   2.2449   0.2905
  48 H_c :1s    -0.2311  -1.8082  -1.7502   3.0308   0.1886
  49 H_c :2px   -0.0050  -0.0128  -0.0017  -0.0058   0.0013
  51 H_c :2pz   -0.0108  -0.0043  -0.0006   0.0010   0.0052
  52 H_c :2px   -0.0423  -0.6012  -0.4803   0.5197  -0.1429
  53 H_c :2py    0.0244   0.3471  -0.0347  -0.4802   0.0827
  54 H_c :2pz    0.1505  -0.1719  -0.3132   0.5423   0.2069

  Total CPU  time used in SIRIUS :   0.45 seconds
  Total wall time used in SIRIUS :   0.46 seconds

 
     Date and time (Linux)  : Fri Sep 29 06:25:54 2023
     Host name              : sn-mem                                  


                     .---------------------------------------.
                     | End of Wave Function Section (SIRIUS) |
                     `---------------------------------------'



                 .------------------------------------------------.
                 | Starting in Dynamic Property Section (RESPONS) |
                 `------------------------------------------------'


 ----------------------------------------------------------------------------------------
  RESPONSE  -  an MCSCF, MC-srDFT, DFT, SOPPA and SOPPA-srDFT response property program
 ----------------------------------------------------------------------------------------


 -------- OUTPUT FROM RESPONSE INPUT PROCESSING --------




 Quadratic Response calculation
 ------------------------------

 First hyperpolarizability calculation : HYPCAL= T

 Spin of operator A , ISPINA=    0
 Spin of operator B , ISPINB=    0
 Spin of operator C , ISPINC=    0

  5 B-frequencies  0.000000D+00  1.647050D-02  3.294100D-02  4.941150D-02  6.588200D-02
  5 C-frequencies  0.000000D+00  1.647050D-02  3.294100D-02  4.941150D-02  6.588200D-02


 Print level                                    : IPRHYP =   2
 Maximum number of iterations in lin.rsp. solver: MAXITL =  60
 Threshold for convergence of linear resp. eq.s : THCLR  = 1.000D-03
 Maximum iterations in optimal orbital algorithm: MAXITO =   5
 Direct one-index transformation                : DIROIT = T

    3 A OPERATORS OF SYMMETRY NO:    1 AND LABELS:

          XDIPLEN 
          YDIPLEN 
          ZDIPLEN 

    3 B OPERATORS OF SYMMETRY NO:    1 AND LABELS:

          XDIPLEN 
          YDIPLEN 
          ZDIPLEN 

    3 C OPERATORS OF SYMMETRY NO:    1 AND LABELS:

          XDIPLEN 
          YDIPLEN 
          ZDIPLEN 


   SCF energy         :     -342.471997892173590
 -- inactive part     :     -359.998278598526781
 -- nuclear repulsion :       17.526280706353216


                     ***************************************
                     *** RHF response calculation (TDHF) ***
                     ***************************************



 Linear response calculations for quadratic response
 - singlet property operator of symmetry    1  ( A  )


 Perturbation symmetry.     KSYMOP:           1
 Perturbation spin symmetry.TRPLET:           F
 Orbital variables.         KZWOPT:         405
 Configuration variables.   KZCONF:           0
 Total number of variables. KZVAR :         405


 QRLRVE -- linear response calculation for symmetry  1  ( A  )
 QRLRVE -- operator label : XDIPLEN 
 QRLRVE -- operator spin  :   0
 QRLRVE -- frequencies :  0.000000  0.016470  0.032941  0.049411  0.065882
                          0.082352  0.098823  0.115293  0.131764



 ---  SOLVING SETS OF LINEAR EQUATIONS FOR LINEAR RESPONSE PROPERTIES ---

 Operator symmetry = 1  ( A  ); triplet =   F


 ** RSPCTL MICROITERATION NUMBER    1

       No.  Residual tot.,    conf., and orb.    Bnorm      Frequency 
      ----------------------------------------------------------------
         1    1.70625D+00  0.00D+00  1.71D+00  4.84D+00    0.00000D+00
         2    1.70868D+00  0.00D+00  1.71D+00  4.86D+00    1.64705D-02
         3    1.71602D+00  0.00D+00  1.72D+00  4.90D+00    3.29410D-02
         4    1.72847D+00  0.00D+00  1.73D+00  4.97D+00    4.94115D-02
         5    1.74634D+00  0.00D+00  1.75D+00  5.08D+00    6.58820D-02
         6    1.77012D+00  0.00D+00  1.77D+00  5.22D+00    8.23525D-02
         7    1.80052D+00  0.00D+00  1.80D+00  5.40D+00    9.88230D-02
         8    1.83853D+00  0.00D+00  1.84D+00  5.63D+00    1.15293D-01
         9    1.88554D+00  0.00D+00  1.89D+00  5.91D+00    1.31764D-01

 ** RSPCTL MICROITERATION NUMBER    2

       No.  Residual tot.,    conf., and orb.    Bnorm      Frequency 
      ----------------------------------------------------------------
         1    1.74832D-01  0.00D+00  1.75D-01  5.20D+00    0.00000D+00
         2    1.75263D-01  0.00D+00  1.75D-01  5.21D+00    1.64705D-02
         3    1.76566D-01  0.00D+00  1.77D-01  5.26D+00    3.29410D-02
         4    1.78779D-01  0.00D+00  1.79D-01  5.35D+00    4.94115D-02
         5    1.81969D-01  0.00D+00  1.82D-01  5.47D+00    6.58820D-02
         6    1.86235D-01  0.00D+00  1.86D-01  5.63D+00    8.23525D-02
         7    1.91725D-01  0.00D+00  1.92D-01  5.84D+00    9.88230D-02
         8    1.98651D-01  0.00D+00  1.99D-01  6.10D+00    1.15293D-01
         9    2.07325D-01  0.00D+00  2.07D-01  6.44D+00    1.31764D-01

 ** RSPCTL MICROITERATION NUMBER    3

       No.  Residual tot.,    conf., and orb.    Bnorm      Frequency 
      ----------------------------------------------------------------
         1    1.07069D-02  0.00D+00  1.07D-02  5.20D+00    0.00000D+00
         2    1.07658D-02  0.00D+00  1.08D-02  5.22D+00    1.64705D-02
         3    1.09450D-02  0.00D+00  1.09D-02  5.27D+00    3.29410D-02
         4    1.12516D-02  0.00D+00  1.13D-02  5.35D+00    4.94115D-02
         5    1.16987D-02  0.00D+00  1.17D-02  5.47D+00    6.58820D-02
         6    1.23062D-02  0.00D+00  1.23D-02  5.63D+00    8.23525D-02
         7    1.31043D-02  0.00D+00  1.31D-02  5.84D+00    9.88230D-02
         8    1.41374D-02  0.00D+00  1.41D-02  6.11D+00    1.15293D-01
         9    1.54731D-02  0.00D+00  1.55D-02  6.45D+00    1.31764D-01

 ** RSPCTL MICROITERATION NUMBER    4

       No.  Residual tot.,    conf., and orb.    Bnorm      Frequency 
      ----------------------------------------------------------------
         1    1.23486D-03  0.00D+00  1.23D-03  5.20D+00    0.00000D+00
         2    1.24189D-03  0.00D+00  1.24D-03  5.22D+00    1.64705D-02
         3    1.26326D-03  0.00D+00  1.26D-03  5.27D+00    3.29410D-02
         4    1.29984D-03  0.00D+00  1.30D-03  5.35D+00    4.94115D-02
         5    1.35319D-03  0.00D+00  1.35D-03  5.47D+00    6.58820D-02
         6    1.42568D-03  0.00D+00  1.43D-03  5.63D+00    8.23525D-02
         7    1.52080D-03  0.00D+00  1.52D-03  5.84D+00    9.88230D-02
         8    1.64367D-03  0.00D+00  1.64D-03  6.11D+00    1.15293D-01
         9    1.80188D-03  0.00D+00  1.80D-03  6.45D+00    1.31764D-01

 *** THE REQUESTED    9 SOLUTION VECTORS CONVERGED

 Convergence of RSP solution vectors, threshold = 1.00D-03
 ---------------------------------------------------------------
 (dimension of paired reduced space:   72)
 RSP solution vector no.    1; norm of residual   2.37D-04
 RSP solution vector no.    2; norm of residual   2.38D-04
 RSP solution vector no.    3; norm of residual   2.40D-04
 RSP solution vector no.    4; norm of residual   2.43D-04
 RSP solution vector no.    5; norm of residual   2.47D-04
 RSP solution vector no.    6; norm of residual   2.53D-04
 RSP solution vector no.    7; norm of residual   2.60D-04
 RSP solution vector no.    8; norm of residual   2.69D-04
 RSP solution vector no.    9; norm of residual   2.79D-04

 *** RSPCTL MICROITERATIONS CONVERGED

@ QRLRVE: SINGLET SOLUTION FOR SYMMETRY    1  ( A  )    LABEL   XDIPLEN     FREQUENCY   0.000000D+00

@ QRLRVE:  << XDIPLEN  ; XDIPLEN  >> (   0.00000):     29.1763077909    

@ QRLRVE:  << YDIPLEN  ; XDIPLEN  >> (   0.00000):   -1.443541559239E-04

@ QRLRVE:  << ZDIPLEN  ; XDIPLEN  >> (   0.00000):   -1.245177534469E-03

@ QRLRVE: SINGLET SOLUTION FOR SYMMETRY    1  ( A  )    LABEL   XDIPLEN     FREQUENCY   0.164705D-01

@ QRLRVE:  << XDIPLEN  ; XDIPLEN  >> (   0.01647):     29.2203288346    

@ QRLRVE:  << YDIPLEN  ; XDIPLEN  >> (   0.01647):   -1.466446172278E-04

@ QRLRVE:  << ZDIPLEN  ; XDIPLEN  >> (   0.01647):   -1.246304385119E-03

@ QRLRVE: SINGLET SOLUTION FOR SYMMETRY    1  ( A  )    LABEL   XDIPLEN     FREQUENCY   0.329410D-01

@ QRLRVE:  << XDIPLEN  ; XDIPLEN  >> (   0.03294):     29.3534937315    

@ QRLRVE:  << YDIPLEN  ; XDIPLEN  >> (   0.03294):   -1.538271142724E-04

@ QRLRVE:  << ZDIPLEN  ; XDIPLEN  >> (   0.03294):   -1.249503395202E-03

@ QRLRVE: SINGLET SOLUTION FOR SYMMETRY    1  ( A  )    LABEL   XDIPLEN     FREQUENCY   0.494115D-01

@ QRLRVE:  << XDIPLEN  ; XDIPLEN  >> (   0.04941):     29.5791972157    

@ QRLRVE:  << YDIPLEN  ; XDIPLEN  >> (   0.04941):   -1.668886013810E-04

@ QRLRVE:  << ZDIPLEN  ; XDIPLEN  >> (   0.04941):   -1.254189601632E-03

@ QRLRVE: SINGLET SOLUTION FOR SYMMETRY    1  ( A  )    LABEL   XDIPLEN     FREQUENCY   0.658820D-01

@ QRLRVE:  << XDIPLEN  ; XDIPLEN  >> (   0.06588):     29.9034113878    

@ QRLRVE:  << YDIPLEN  ; XDIPLEN  >> (   0.06588):   -1.876656149744E-04

@ QRLRVE:  << ZDIPLEN  ; XDIPLEN  >> (   0.06588):   -1.259242502894E-03

@ QRLRVE: SINGLET SOLUTION FOR SYMMETRY    1  ( A  )    LABEL   XDIPLEN     FREQUENCY   0.823525D-01

@ QRLRVE:  << XDIPLEN  ; XDIPLEN  >> (   0.08235):     30.3352185187    

@ QRLRVE:  << YDIPLEN  ; XDIPLEN  >> (   0.08235):   -2.191812228826E-04

@ QRLRVE:  << ZDIPLEN  ; XDIPLEN  >> (   0.08235):   -1.262744580067E-03

@ QRLRVE: SINGLET SOLUTION FOR SYMMETRY    1  ( A  )    LABEL   XDIPLEN     FREQUENCY   0.988230D-01

@ QRLRVE:  << XDIPLEN  ; XDIPLEN  >> (   0.09882):     30.8877012699    

@ QRLRVE:  << YDIPLEN  ; XDIPLEN  >> (   0.09882):   -2.662337425496E-04

@ QRLRVE:  << ZDIPLEN  ; XDIPLEN  >> (   0.09882):   -1.261511305037E-03

@ QRLRVE: SINGLET SOLUTION FOR SYMMETRY    1  ( A  )    LABEL   XDIPLEN     FREQUENCY   0.115293D+00

@ QRLRVE:  << XDIPLEN  ; XDIPLEN  >> (   0.11529):     31.5793960994    

@ QRLRVE:  << YDIPLEN  ; XDIPLEN  >> (   0.11529):   -3.364052035329E-04

@ QRLRVE:  << ZDIPLEN  ; XDIPLEN  >> (   0.11529):   -1.250257437541E-03

@ QRLRVE: SINGLET SOLUTION FOR SYMMETRY    1  ( A  )    LABEL   XDIPLEN     FREQUENCY   0.131764D+00

@ QRLRVE:  << XDIPLEN  ; XDIPLEN  >> (   0.13176):     32.4367020490    

@ QRLRVE:  << YDIPLEN  ; XDIPLEN  >> (   0.13176):   -4.418084956067E-04

@ QRLRVE:  << ZDIPLEN  ; XDIPLEN  >> (   0.13176):   -1.220092841187E-03


 QRLRVE -- linear response calculation for symmetry  1  ( A  )
 QRLRVE -- operator label : YDIPLEN 
 QRLRVE -- operator spin  :   0
 QRLRVE -- frequencies :  0.000000  0.016470  0.032941  0.049411  0.065882
                          0.082352  0.098823  0.115293  0.131764



 ---  SOLVING SETS OF LINEAR EQUATIONS FOR LINEAR RESPONSE PROPERTIES ---

 Operator symmetry = 1  ( A  ); triplet =   F


 ** RSPCTL MICROITERATION NUMBER    1

       No.  Residual tot.,    conf., and orb.    Bnorm      Frequency 
      ----------------------------------------------------------------
         1    1.68578D+00  0.00D+00  1.69D+00  4.85D+00    0.00000D+00
         2    1.68822D+00  0.00D+00  1.69D+00  4.86D+00    1.64705D-02
         3    1.69559D+00  0.00D+00  1.70D+00  4.91D+00    3.29410D-02
         4    1.70808D+00  0.00D+00  1.71D+00  4.98D+00    4.94115D-02
         5    1.72603D+00  0.00D+00  1.73D+00  5.08D+00    6.58820D-02
         6    1.74992D+00  0.00D+00  1.75D+00  5.22D+00    8.23525D-02
         7    1.78048D+00  0.00D+00  1.78D+00  5.40D+00    9.88230D-02
         8    1.81871D+00  0.00D+00  1.82D+00  5.63D+00    1.15293D-01
         9    1.86602D+00  0.00D+00  1.87D+00  5.91D+00    1.31764D-01

 ** RSPCTL MICROITERATION NUMBER    2

       No.  Residual tot.,    conf., and orb.    Bnorm      Frequency 
      ----------------------------------------------------------------
         1    1.63079D-01  0.00D+00  1.63D-01  5.20D+00    0.00000D+00
         2    1.63525D-01  0.00D+00  1.64D-01  5.21D+00    1.64705D-02
         3    1.64874D-01  0.00D+00  1.65D-01  5.26D+00    3.29410D-02
         4    1.67169D-01  0.00D+00  1.67D-01  5.35D+00    4.94115D-02
         5    1.70484D-01  0.00D+00  1.70D-01  5.47D+00    6.58820D-02
         6    1.74932D-01  0.00D+00  1.75D-01  5.63D+00    8.23525D-02
         7    1.80679D-01  0.00D+00  1.81D-01  5.84D+00    9.88230D-02
         8    1.87969D-01  0.00D+00  1.88D-01  6.10D+00    1.15293D-01
         9    1.97162D-01  0.00D+00  1.97D-01  6.44D+00    1.31764D-01

 ** RSPCTL MICROITERATION NUMBER    3

       No.  Residual tot.,    conf., and orb.    Bnorm      Frequency 
      ----------------------------------------------------------------
         1    1.34001D-02  0.00D+00  1.34D-02  5.20D+00    0.00000D+00
         2    1.34497D-02  0.00D+00  1.34D-02  5.22D+00    1.64705D-02
         3    1.36004D-02  0.00D+00  1.36D-02  5.27D+00    3.29410D-02
         4    1.38578D-02  0.00D+00  1.39D-02  5.35D+00    4.94115D-02
         5    1.42317D-02  0.00D+00  1.42D-02  5.47D+00    6.58820D-02
         6    1.47375D-02  0.00D+00  1.47D-02  5.63D+00    8.23525D-02
         7    1.53974D-02  0.00D+00  1.54D-02  5.84D+00    9.88230D-02
         8    1.62439D-02  0.00D+00  1.62D-02  6.11D+00    1.15293D-01
         9    1.73256D-02  0.00D+00  1.73D-02  6.45D+00    1.31764D-01

 ** RSPCTL MICROITERATION NUMBER    4

       No.  Residual tot.,    conf., and orb.    Bnorm      Frequency 
      ----------------------------------------------------------------
         1    1.62919D-03  0.00D+00  1.63D-03  5.20D+00    0.00000D+00
         2    1.63224D-03  0.00D+00  1.63D-03  5.22D+00    1.64705D-02
         3    1.64154D-03  0.00D+00  1.64D-03  5.27D+00    3.29410D-02
         4    1.65751D-03  0.00D+00  1.66D-03  5.35D+00    4.94115D-02
         5    1.68098D-03  0.00D+00  1.68D-03  5.47D+00    6.58820D-02
         6    1.71348D-03  0.00D+00  1.71D-03  5.63D+00    8.23525D-02
         7    1.75765D-03  0.00D+00  1.76D-03  5.84D+00    9.88230D-02
         8    1.81827D-03  0.00D+00  1.82D-03  6.11D+00    1.15293D-01
         9    1.90408D-03  0.00D+00  1.90D-03  6.45D+00    1.31764D-01

 *** THE REQUESTED    9 SOLUTION VECTORS CONVERGED

 Convergence of RSP solution vectors, threshold = 1.00D-03
 ---------------------------------------------------------------
 (dimension of paired reduced space:   72)
 RSP solution vector no.    1; norm of residual   3.13D-04
 RSP solution vector no.    2; norm of residual   3.13D-04
 RSP solution vector no.    3; norm of residual   3.12D-04
 RSP solution vector no.    4; norm of residual   3.10D-04
 RSP solution vector no.    5; norm of residual   3.07D-04
 RSP solution vector no.    6; norm of residual   3.04D-04
 RSP solution vector no.    7; norm of residual   3.01D-04
 RSP solution vector no.    8; norm of residual   2.98D-04
 RSP solution vector no.    9; norm of residual   2.95D-04

 *** RSPCTL MICROITERATIONS CONVERGED

@ QRLRVE: SINGLET SOLUTION FOR SYMMETRY    1  ( A  )    LABEL   YDIPLEN     FREQUENCY   0.000000D+00

@ QRLRVE:  << XDIPLEN  ; YDIPLEN  >> (   0.00000):   -1.060508258990E-04

@ QRLRVE:  << YDIPLEN  ; YDIPLEN  >> (   0.00000):     29.1770285260    

@ QRLRVE:  << ZDIPLEN  ; YDIPLEN  >> (   0.00000):    2.277799538973E-04

@ QRLRVE: SINGLET SOLUTION FOR SYMMETRY    1  ( A  )    LABEL   YDIPLEN     FREQUENCY   0.164705D-01

@ QRLRVE:  << XDIPLEN  ; YDIPLEN  >> (   0.01647):   -1.060459195164E-04

@ QRLRVE:  << YDIPLEN  ; YDIPLEN  >> (   0.01647):     29.2210517223    

@ QRLRVE:  << ZDIPLEN  ; YDIPLEN  >> (   0.01647):    2.337012357902E-04

@ QRLRVE: SINGLET SOLUTION FOR SYMMETRY    1  ( A  )    LABEL   YDIPLEN     FREQUENCY   0.329410D-01

@ QRLRVE:  << XDIPLEN  ; YDIPLEN  >> (   0.03294):   -1.060287139871E-04

@ QRLRVE:  << YDIPLEN  ; YDIPLEN  >> (   0.03294):     29.3542231460    

@ QRLRVE:  << ZDIPLEN  ; YDIPLEN  >> (   0.03294):    2.517222470204E-04

@ QRLRVE: SINGLET SOLUTION FOR SYMMETRY    1  ( A  )    LABEL   YDIPLEN     FREQUENCY   0.494115D-01

@ QRLRVE:  << XDIPLEN  ; YDIPLEN  >> (   0.04941):   -1.059909014068E-04

@ QRLRVE:  << YDIPLEN  ; YDIPLEN  >> (   0.04941):     29.5799377438    

@ QRLRVE:  << ZDIPLEN  ; YDIPLEN  >> (   0.04941):    2.826351404210E-04

@ QRLRVE: SINGLET SOLUTION FOR SYMMETRY    1  ( A  )    LABEL   YDIPLEN     FREQUENCY   0.658820D-01

@ QRLRVE:  << XDIPLEN  ; YDIPLEN  >> (   0.06588):   -1.059153908224E-04

@ QRLRVE:  << YDIPLEN  ; YDIPLEN  >> (   0.06588):     29.9041679899    

@ QRLRVE:  << ZDIPLEN  ; YDIPLEN  >> (   0.06588):    3.278325361000E-04

@ QRLRVE: SINGLET SOLUTION FOR SYMMETRY    1  ( A  )    LABEL   YDIPLEN     FREQUENCY   0.823525D-01

@ QRLRVE:  << XDIPLEN  ; YDIPLEN  >> (   0.08235):   -1.057697693958E-04

@ QRLRVE:  << YDIPLEN  ; YDIPLEN  >> (   0.08235):     30.3359967216    

@ QRLRVE:  << ZDIPLEN  ; YDIPLEN  >> (   0.08235):    3.894296948635E-04

@ QRLRVE: SINGLET SOLUTION FOR SYMMETRY    1  ( A  )    LABEL   YDIPLEN     FREQUENCY   0.988230D-01

@ QRLRVE:  << XDIPLEN  ; YDIPLEN  >> (   0.09882):   -1.054928768173E-04

@ QRLRVE:  << YDIPLEN  ; YDIPLEN  >> (   0.09882):     30.8885074105    

@ QRLRVE:  << ZDIPLEN  ; YDIPLEN  >> (   0.09882):    4.704685195185E-04

@ QRLRVE: SINGLET SOLUTION FOR SYMMETRY    1  ( A  )    LABEL   YDIPLEN     FREQUENCY   0.115293D+00

@ QRLRVE:  << XDIPLEN  ; YDIPLEN  >> (   0.11529):   -1.049674351992E-04

@ QRLRVE:  << YDIPLEN  ; YDIPLEN  >> (   0.11529):     31.5802376479    

@ QRLRVE:  << ZDIPLEN  ; YDIPLEN  >> (   0.11529):    5.752538394256E-04

@ QRLRVE: SINGLET SOLUTION FOR SYMMETRY    1  ( A  )    LABEL   YDIPLEN     FREQUENCY   0.131764D+00

@ QRLRVE:  << XDIPLEN  ; YDIPLEN  >> (   0.13176):   -1.039635307624E-04

@ QRLRVE:  << YDIPLEN  ; YDIPLEN  >> (   0.13176):     32.4375880525    

@ QRLRVE:  << ZDIPLEN  ; YDIPLEN  >> (   0.13176):    7.099269487009E-04


 QRLRVE -- linear response calculation for symmetry  1  ( A  )
 QRLRVE -- operator label : ZDIPLEN 
 QRLRVE -- operator spin  :   0
 QRLRVE -- frequencies :  0.000000  0.016470  0.032941  0.049411  0.065882
                          0.082352  0.098823  0.115293  0.131764



 ---  SOLVING SETS OF LINEAR EQUATIONS FOR LINEAR RESPONSE PROPERTIES ---

 Operator symmetry = 1  ( A  ); triplet =   F


 ** RSPCTL MICROITERATION NUMBER    1

       No.  Residual tot.,    conf., and orb.    Bnorm      Frequency 
      ----------------------------------------------------------------
         1    1.45786D+00  0.00D+00  1.46D+00  5.31D+00    0.00000D+00
         2    1.45968D+00  0.00D+00  1.46D+00  5.33D+00    1.64705D-02
         3    1.46517D+00  0.00D+00  1.47D+00  5.38D+00    3.29410D-02
         4    1.47449D+00  0.00D+00  1.47D+00  5.48D+00    4.94115D-02
         5    1.48789D+00  0.00D+00  1.49D+00  5.63D+00    6.58820D-02
         6    1.50575D+00  0.00D+00  1.51D+00  5.82D+00    8.23525D-02
         7    1.52867D+00  0.00D+00  1.53D+00  6.08D+00    9.88230D-02
         8    1.55750D+00  0.00D+00  1.56D+00  6.42D+00    1.15293D-01
         9    1.59357D+00  0.00D+00  1.59D+00  6.85D+00    1.31764D-01

 ** RSPCTL MICROITERATION NUMBER    2

       No.  Residual tot.,    conf., and orb.    Bnorm      Frequency 
      ----------------------------------------------------------------
         1    1.37768D-01  0.00D+00  1.38D-01  5.51D+00    0.00000D+00
         2    1.38037D-01  0.00D+00  1.38D-01  5.53D+00    1.64705D-02
         3    1.38854D-01  0.00D+00  1.39D-01  5.59D+00    3.29410D-02
         4    1.40243D-01  0.00D+00  1.40D-01  5.69D+00    4.94115D-02
         5    1.42245D-01  0.00D+00  1.42D-01  5.84D+00    6.58820D-02
         6    1.44927D-01  0.00D+00  1.45D-01  6.05D+00    8.23525D-02
         7    1.48387D-01  0.00D+00  1.48D-01  6.32D+00    9.88230D-02
         8    1.52769D-01  0.00D+00  1.53D-01  6.68D+00    1.15293D-01
         9    1.58290D-01  0.00D+00  1.58D-01  7.14D+00    1.31764D-01

 ** RSPCTL MICROITERATION NUMBER    3

       No.  Residual tot.,    conf., and orb.    Bnorm      Frequency 
      ----------------------------------------------------------------
         1    1.62517D-02  0.00D+00  1.63D-02  5.51D+00    0.00000D+00
         2    1.62968D-02  0.00D+00  1.63D-02  5.53D+00    1.64705D-02
         3    1.64339D-02  0.00D+00  1.64D-02  5.59D+00    3.29410D-02
         4    1.66679D-02  0.00D+00  1.67D-02  5.69D+00    4.94115D-02
         5    1.70081D-02  0.00D+00  1.70D-02  5.85D+00    6.58820D-02
         6    1.74688D-02  0.00D+00  1.75D-02  6.05D+00    8.23525D-02
         7    1.80713D-02  0.00D+00  1.81D-02  6.32D+00    9.88230D-02
         8    1.88472D-02  0.00D+00  1.88D-02  6.68D+00    1.15293D-01
         9    1.98438D-02  0.00D+00  1.98D-02  7.14D+00    1.31764D-01

 ** RSPCTL MICROITERATION NUMBER    4

       No.  Residual tot.,    conf., and orb.    Bnorm      Frequency 
      ----------------------------------------------------------------
         1    2.29303D-03  0.00D+00  2.29D-03  5.51D+00    0.00000D+00
         2    2.30303D-03  0.00D+00  2.30D-03  5.53D+00    1.64705D-02
         3    2.33338D-03  0.00D+00  2.33D-03  5.59D+00    3.29410D-02
         4    2.38525D-03  0.00D+00  2.39D-03  5.69D+00    4.94115D-02
         5    2.46071D-03  0.00D+00  2.46D-03  5.85D+00    6.58820D-02
         6    2.56297D-03  0.00D+00  2.56D-03  6.05D+00    8.23525D-02
         7    2.69680D-03  0.00D+00  2.70D-03  6.32D+00    9.88230D-02
         8    2.86922D-03  0.00D+00  2.87D-03  6.68D+00    1.15293D-01
         9    3.09076D-03  0.00D+00  3.09D-03  7.14D+00    1.31764D-01

 *** THE REQUESTED    9 SOLUTION VECTORS CONVERGED

 Convergence of RSP solution vectors, threshold = 1.00D-03
 ---------------------------------------------------------------
 (dimension of paired reduced space:   72)
 RSP solution vector no.    1; norm of residual   4.16D-04
 RSP solution vector no.    2; norm of residual   4.17D-04
 RSP solution vector no.    3; norm of residual   4.17D-04
 RSP solution vector no.    4; norm of residual   4.19D-04
 RSP solution vector no.    5; norm of residual   4.21D-04
 RSP solution vector no.    6; norm of residual   4.23D-04
 RSP solution vector no.    7; norm of residual   4.26D-04
 RSP solution vector no.    8; norm of residual   4.30D-04
 RSP solution vector no.    9; norm of residual   4.33D-04

 *** RSPCTL MICROITERATIONS CONVERGED

@ QRLRVE: SINGLET SOLUTION FOR SYMMETRY    1  ( A  )    LABEL   ZDIPLEN     FREQUENCY   0.000000D+00

@ QRLRVE:  << XDIPLEN  ; ZDIPLEN  >> (   0.00000):   -3.183623994852E-03

@ QRLRVE:  << YDIPLEN  ; ZDIPLEN  >> (   0.00000):    5.048288849798E-04

@ QRLRVE:  << ZDIPLEN  ; ZDIPLEN  >> (   0.00000):     29.8184372823    

@ QRLRVE: SINGLET SOLUTION FOR SYMMETRY    1  ( A  )    LABEL   ZDIPLEN     FREQUENCY   0.164705D-01

@ QRLRVE:  << XDIPLEN  ; ZDIPLEN  >> (   0.01647):   -3.197181894772E-03

@ QRLRVE:  << YDIPLEN  ; ZDIPLEN  >> (   0.01647):    5.064678786690E-04

@ QRLRVE:  << ZDIPLEN  ; ZDIPLEN  >> (   0.01647):     29.8695082616    

@ QRLRVE: SINGLET SOLUTION FOR SYMMETRY    1  ( A  )    LABEL   ZDIPLEN     FREQUENCY   0.329410D-01

@ QRLRVE:  << XDIPLEN  ; ZDIPLEN  >> (   0.03294):   -3.238382947992E-03

@ QRLRVE:  << YDIPLEN  ; ZDIPLEN  >> (   0.03294):    5.114707059277E-04

@ QRLRVE:  << ZDIPLEN  ; ZDIPLEN  >> (   0.03294):     30.0243148466    

@ QRLRVE: SINGLET SOLUTION FOR SYMMETRY    1  ( A  )    LABEL   ZDIPLEN     FREQUENCY   0.494115D-01

@ QRLRVE:  << XDIPLEN  ; ZDIPLEN  >> (   0.04941):   -3.308859683980E-03

@ QRLRVE:  << YDIPLEN  ; ZDIPLEN  >> (   0.04941):    5.201081628602E-04

@ QRLRVE:  << ZDIPLEN  ; ZDIPLEN  >> (   0.04941):     30.2878014045    

@ QRLRVE: SINGLET SOLUTION FOR SYMMETRY    1  ( A  )    LABEL   ZDIPLEN     FREQUENCY   0.658820D-01

@ QRLRVE:  << XDIPLEN  ; ZDIPLEN  >> (   0.06588):   -3.411510971528E-03

@ QRLRVE:  << YDIPLEN  ; ZDIPLEN  >> (   0.06588):    5.328798010335E-04

@ QRLRVE:  << ZDIPLEN  ; ZDIPLEN  >> (   0.06588):     30.6687892473    

@ QRLRVE: SINGLET SOLUTION FOR SYMMETRY    1  ( A  )    LABEL   ZDIPLEN     FREQUENCY   0.823525D-01

@ QRLRVE:  << XDIPLEN  ; ZDIPLEN  >> (   0.08235):   -3.550806531884E-03

@ QRLRVE:  << YDIPLEN  ; ZDIPLEN  >> (   0.08235):    5.506023720928E-04

@ QRLRVE:  << ZDIPLEN  ; ZDIPLEN  >> (   0.08235):     31.1809872269    

@ QRLRVE: SINGLET SOLUTION FOR SYMMETRY    1  ( A  )    LABEL   ZDIPLEN     FREQUENCY   0.988230D-01

@ QRLRVE:  << XDIPLEN  ; ZDIPLEN  >> (   0.09882):   -3.733302443515E-03

@ QRLRVE:  << YDIPLEN  ; ZDIPLEN  >> (   0.09882):    5.745744839770E-04

@ QRLRVE:  << ZDIPLEN  ; ZDIPLEN  >> (   0.09882):     31.8447433279    

@ QRLRVE: SINGLET SOLUTION FOR SYMMETRY    1  ( A  )    LABEL   ZDIPLEN     FREQUENCY   0.115293D+00

@ QRLRVE:  << XDIPLEN  ; ZDIPLEN  >> (   0.11529):   -3.968498490640E-03

@ QRLRVE:  << YDIPLEN  ; ZDIPLEN  >> (   0.11529):    6.068852046420E-04

@ QRLRVE:  << ZDIPLEN  ; ZDIPLEN  >> (   0.11529):     32.6900458612    

@ QRLRVE: SINGLET SOLUTION FOR SYMMETRY    1  ( A  )    LABEL   ZDIPLEN     FREQUENCY   0.131764D+00

@ QRLRVE:  << XDIPLEN  ; ZDIPLEN  >> (   0.13176):   -4.270295803003E-03

@ QRLRVE:  << YDIPLEN  ; ZDIPLEN  >> (   0.13176):    6.510171838691E-04

@ QRLRVE:  << ZDIPLEN  ; ZDIPLEN  >> (   0.13176):     33.7618053802    
 
 ======================================================================
 ---  L I N E A R   R E S P O N S E   F U N C T I O N S --- 
 ======================================================================

 The -<<A;B>>(omega_b) functions from vectors generated
 in a *QUADRA calculation of <<A;B,C>>(omega_b,omega_c)

 Note: the accuracy of off-diagonal elements will be linear
 in the convergence threshold THCLR =  1.00D-03


 Perturbation symmetry.     KSYMOP:           1
 Perturbation spin symmetry.TRPLET:           F
 Orbital variables.         KZWOPT:         405
 Configuration variables.   KZCONF:           0
 Total number of variables. KZVAR :         405

@ Singlet linear response function in a.u.

@ A operator, symmetry, frequency:   XDIPLEN    1 -0.000000
@ B operator, symmetry, frequency:   XDIPLEN    1  0.000000

@ Value of linear response -<<A;B>>(omega):      29.176307790924

@ Singlet linear response function in a.u.

@ A operator, symmetry, frequency:   YDIPLEN    1 -0.000000
@ B operator, symmetry, frequency:   XDIPLEN    1  0.000000

@ Value of linear response -<<A;B>>(omega):      -0.000144354156

@ Singlet linear response function in a.u.

@ A operator, symmetry, frequency:   ZDIPLEN    1 -0.000000
@ B operator, symmetry, frequency:   XDIPLEN    1  0.000000

@ Value of linear response -<<A;B>>(omega):      -0.001245177534

@ Singlet linear response function in a.u.

@ A operator, symmetry, frequency:   XDIPLEN    1 -0.016470
@ B operator, symmetry, frequency:   XDIPLEN    1  0.016470

@ Value of linear response -<<A;B>>(omega):      29.220328834638

@ Singlet linear response function in a.u.

@ A operator, symmetry, frequency:   YDIPLEN    1 -0.016470
@ B operator, symmetry, frequency:   XDIPLEN    1  0.016470

@ Value of linear response -<<A;B>>(omega):      -0.000146644617

@ Singlet linear response function in a.u.

@ A operator, symmetry, frequency:   ZDIPLEN    1 -0.016470
@ B operator, symmetry, frequency:   XDIPLEN    1  0.016470

@ Value of linear response -<<A;B>>(omega):      -0.001246304385

@ Singlet linear response function in a.u.

@ A operator, symmetry, frequency:   XDIPLEN    1 -0.032941
@ B operator, symmetry, frequency:   XDIPLEN    1  0.032941

@ Value of linear response -<<A;B>>(omega):      29.353493731520

@ Singlet linear response function in a.u.

@ A operator, symmetry, frequency:   YDIPLEN    1 -0.032941
@ B operator, symmetry, frequency:   XDIPLEN    1  0.032941

@ Value of linear response -<<A;B>>(omega):      -0.000153827114

@ Singlet linear response function in a.u.

@ A operator, symmetry, frequency:   ZDIPLEN    1 -0.032941
@ B operator, symmetry, frequency:   XDIPLEN    1  0.032941

@ Value of linear response -<<A;B>>(omega):      -0.001249503395

@ Singlet linear response function in a.u.

@ A operator, symmetry, frequency:   XDIPLEN    1 -0.049411
@ B operator, symmetry, frequency:   XDIPLEN    1  0.049411

@ Value of linear response -<<A;B>>(omega):      29.579197215747

@ Singlet linear response function in a.u.

@ A operator, symmetry, frequency:   YDIPLEN    1 -0.049411
@ B operator, symmetry, frequency:   XDIPLEN    1  0.049411

@ Value of linear response -<<A;B>>(omega):      -0.000166888601

@ Singlet linear response function in a.u.

@ A operator, symmetry, frequency:   ZDIPLEN    1 -0.049411
@ B operator, symmetry, frequency:   XDIPLEN    1  0.049411

@ Value of linear response -<<A;B>>(omega):      -0.001254189602

@ Singlet linear response function in a.u.

@ A operator, symmetry, frequency:   XDIPLEN    1 -0.065882
@ B operator, symmetry, frequency:   XDIPLEN    1  0.065882

@ Value of linear response -<<A;B>>(omega):      29.903411387820

@ Singlet linear response function in a.u.

@ A operator, symmetry, frequency:   YDIPLEN    1 -0.065882
@ B operator, symmetry, frequency:   XDIPLEN    1  0.065882

@ Value of linear response -<<A;B>>(omega):      -0.000187665615

@ Singlet linear response function in a.u.

@ A operator, symmetry, frequency:   ZDIPLEN    1 -0.065882
@ B operator, symmetry, frequency:   XDIPLEN    1  0.065882

@ Value of linear response -<<A;B>>(omega):      -0.001259242503

@ Singlet linear response function in a.u.

@ A operator, symmetry, frequency:   XDIPLEN    1 -0.000000
@ B operator, symmetry, frequency:   YDIPLEN    1  0.000000

@ Value of linear response -<<A;B>>(omega):      -0.000106050826

@ Singlet linear response function in a.u.

@ A operator, symmetry, frequency:   YDIPLEN    1 -0.000000
@ B operator, symmetry, frequency:   YDIPLEN    1  0.000000

@ Value of linear response -<<A;B>>(omega):      29.177028526035

@ Singlet linear response function in a.u.

@ A operator, symmetry, frequency:   ZDIPLEN    1 -0.000000
@ B operator, symmetry, frequency:   YDIPLEN    1  0.000000

@ Value of linear response -<<A;B>>(omega):       0.000227779954

@ Singlet linear response function in a.u.

@ A operator, symmetry, frequency:   XDIPLEN    1 -0.016470
@ B operator, symmetry, frequency:   YDIPLEN    1  0.016470

@ Value of linear response -<<A;B>>(omega):      -0.000106045920

@ Singlet linear response function in a.u.

@ A operator, symmetry, frequency:   YDIPLEN    1 -0.016470
@ B operator, symmetry, frequency:   YDIPLEN    1  0.016470

@ Value of linear response -<<A;B>>(omega):      29.221051722320

@ Singlet linear response function in a.u.

@ A operator, symmetry, frequency:   ZDIPLEN    1 -0.016470
@ B operator, symmetry, frequency:   YDIPLEN    1  0.016470

@ Value of linear response -<<A;B>>(omega):       0.000233701236

@ Singlet linear response function in a.u.

@ A operator, symmetry, frequency:   XDIPLEN    1 -0.032941
@ B operator, symmetry, frequency:   YDIPLEN    1  0.032941

@ Value of linear response -<<A;B>>(omega):      -0.000106028714

@ Singlet linear response function in a.u.

@ A operator, symmetry, frequency:   YDIPLEN    1 -0.032941
@ B operator, symmetry, frequency:   YDIPLEN    1  0.032941

@ Value of linear response -<<A;B>>(omega):      29.354223145962

@ Singlet linear response function in a.u.

@ A operator, symmetry, frequency:   ZDIPLEN    1 -0.032941
@ B operator, symmetry, frequency:   YDIPLEN    1  0.032941

@ Value of linear response -<<A;B>>(omega):       0.000251722247

@ Singlet linear response function in a.u.

@ A operator, symmetry, frequency:   XDIPLEN    1 -0.049411
@ B operator, symmetry, frequency:   YDIPLEN    1  0.049411

@ Value of linear response -<<A;B>>(omega):      -0.000105990901

@ Singlet linear response function in a.u.

@ A operator, symmetry, frequency:   YDIPLEN    1 -0.049411
@ B operator, symmetry, frequency:   YDIPLEN    1  0.049411

@ Value of linear response -<<A;B>>(omega):      29.579937743793

@ Singlet linear response function in a.u.

@ A operator, symmetry, frequency:   ZDIPLEN    1 -0.049411
@ B operator, symmetry, frequency:   YDIPLEN    1  0.049411

@ Value of linear response -<<A;B>>(omega):       0.000282635140

@ Singlet linear response function in a.u.

@ A operator, symmetry, frequency:   XDIPLEN    1 -0.065882
@ B operator, symmetry, frequency:   YDIPLEN    1  0.065882

@ Value of linear response -<<A;B>>(omega):      -0.000105915391

@ Singlet linear response function in a.u.

@ A operator, symmetry, frequency:   YDIPLEN    1 -0.065882
@ B operator, symmetry, frequency:   YDIPLEN    1  0.065882

@ Value of linear response -<<A;B>>(omega):      29.904167989908

@ Singlet linear response function in a.u.

@ A operator, symmetry, frequency:   ZDIPLEN    1 -0.065882
@ B operator, symmetry, frequency:   YDIPLEN    1  0.065882

@ Value of linear response -<<A;B>>(omega):       0.000327832536

@ Singlet linear response function in a.u.

@ A operator, symmetry, frequency:   XDIPLEN    1 -0.000000
@ B operator, symmetry, frequency:   ZDIPLEN    1  0.000000

@ Value of linear response -<<A;B>>(omega):      -0.003183623995

@ Singlet linear response function in a.u.

@ A operator, symmetry, frequency:   YDIPLEN    1 -0.000000
@ B operator, symmetry, frequency:   ZDIPLEN    1  0.000000

@ Value of linear response -<<A;B>>(omega):       0.000504828885

@ Singlet linear response function in a.u.

@ A operator, symmetry, frequency:   ZDIPLEN    1 -0.000000
@ B operator, symmetry, frequency:   ZDIPLEN    1  0.000000

@ Value of linear response -<<A;B>>(omega):      29.818437282274

@ Singlet linear response function in a.u.

@ A operator, symmetry, frequency:   XDIPLEN    1 -0.016470
@ B operator, symmetry, frequency:   ZDIPLEN    1  0.016470

@ Value of linear response -<<A;B>>(omega):      -0.003197181895

@ Singlet linear response function in a.u.

@ A operator, symmetry, frequency:   YDIPLEN    1 -0.016470
@ B operator, symmetry, frequency:   ZDIPLEN    1  0.016470

@ Value of linear response -<<A;B>>(omega):       0.000506467879

@ Singlet linear response function in a.u.

@ A operator, symmetry, frequency:   ZDIPLEN    1 -0.016470
@ B operator, symmetry, frequency:   ZDIPLEN    1  0.016470

@ Value of linear response -<<A;B>>(omega):      29.869508261635

@ Singlet linear response function in a.u.

@ A operator, symmetry, frequency:   XDIPLEN    1 -0.032941
@ B operator, symmetry, frequency:   ZDIPLEN    1  0.032941

@ Value of linear response -<<A;B>>(omega):      -0.003238382948

@ Singlet linear response function in a.u.

@ A operator, symmetry, frequency:   YDIPLEN    1 -0.032941
@ B operator, symmetry, frequency:   ZDIPLEN    1  0.032941

@ Value of linear response -<<A;B>>(omega):       0.000511470706

@ Singlet linear response function in a.u.

@ A operator, symmetry, frequency:   ZDIPLEN    1 -0.032941
@ B operator, symmetry, frequency:   ZDIPLEN    1  0.032941

@ Value of linear response -<<A;B>>(omega):      30.024314846616

@ Singlet linear response function in a.u.

@ A operator, symmetry, frequency:   XDIPLEN    1 -0.049411
@ B operator, symmetry, frequency:   ZDIPLEN    1  0.049411

@ Value of linear response -<<A;B>>(omega):      -0.003308859684

@ Singlet linear response function in a.u.

@ A operator, symmetry, frequency:   YDIPLEN    1 -0.049411
@ B operator, symmetry, frequency:   ZDIPLEN    1  0.049411

@ Value of linear response -<<A;B>>(omega):       0.000520108163

@ Singlet linear response function in a.u.

@ A operator, symmetry, frequency:   ZDIPLEN    1 -0.049411
@ B operator, symmetry, frequency:   ZDIPLEN    1  0.049411

@ Value of linear response -<<A;B>>(omega):      30.287801404514

@ Singlet linear response function in a.u.

@ A operator, symmetry, frequency:   XDIPLEN    1 -0.065882
@ B operator, symmetry, frequency:   ZDIPLEN    1  0.065882

@ Value of linear response -<<A;B>>(omega):      -0.003411510972

@ Singlet linear response function in a.u.

@ A operator, symmetry, frequency:   YDIPLEN    1 -0.065882
@ B operator, symmetry, frequency:   ZDIPLEN    1  0.065882

@ Value of linear response -<<A;B>>(omega):       0.000532879801

@ Singlet linear response function in a.u.

@ A operator, symmetry, frequency:   ZDIPLEN    1 -0.065882
@ B operator, symmetry, frequency:   ZDIPLEN    1  0.065882

@ Value of linear response -<<A;B>>(omega):      30.668789247271


  Results from quadratic response calculation
 --------------------------------------------

@ B-freq = 0.000000  C-freq = 0.000000     beta(X;X,X) =     -0.00382607
@ B-freq = 0.000000  C-freq = 0.000000     beta(Y;X,X) =    -17.45252406
@ B-freq = 0.000000  C-freq = 0.000000     beta(Z;X,X) =      0.04099027
@ B-freq = 0.016470  C-freq = 0.000000     beta(X;X,X) =     -0.00382763
@ B-freq = 0.016470  C-freq = 0.000000     beta(Y;X,X) =    -17.53854262
@ B-freq = 0.016470  C-freq = 0.000000     beta(Z;X,X) =      0.01591049
@ B-freq = 0.032941  C-freq = 0.000000     beta(X;X,X) =     -0.00383344
@ B-freq = 0.032941  C-freq = 0.000000     beta(Y;X,X) =    -17.80037750
@ B-freq = 0.032941  C-freq = 0.000000     beta(Z;X,X) =     -0.06192383
@ B-freq = 0.049411  C-freq = 0.000000     beta(X;X,X) =     -0.00384728
@ B-freq = 0.049411  C-freq = 0.000000     beta(Y;X,X) =    -18.24973740
@ B-freq = 0.049411  C-freq = 0.000000     beta(Z;X,X) =     -0.20076981
@ B-freq = 0.065882  C-freq = 0.000000     beta(X;X,X) =     -0.00387705
@ B-freq = 0.065882  C-freq = 0.000000     beta(Y;X,X) =    -18.90743684
@ B-freq = 0.065882  C-freq = 0.000000     beta(Z;X,X) =     -0.41610776
@ B-freq = 0.000000  C-freq = 0.000000     beta(X;Y,X) = beta(Y,X,X)
@ B-freq = 0.000000  C-freq = 0.000000     beta(X;Y,X) =    -17.45252200
@ B-freq = 0.000000  C-freq = 0.000000     beta(Y;Y,X) =      0.00061890
@ B-freq = 0.000000  C-freq = 0.000000     beta(Z;Y,X) =     -0.00104063
@ B-freq = 0.016470  C-freq = 0.000000     beta(X;Y,X) =    -17.53854054
@ B-freq = 0.016470  C-freq = 0.000000     beta(Y;Y,X) =      0.00063252
@ B-freq = 0.016470  C-freq = 0.000000     beta(Z;Y,X) =     -0.00103781
@ B-freq = 0.032941  C-freq = 0.000000     beta(X;Y,X) =    -17.80037536
@ B-freq = 0.032941  C-freq = 0.000000     beta(Y;Y,X) =      0.00067438
@ B-freq = 0.032941  C-freq = 0.000000     beta(Z;Y,X) =     -0.00102958
@ B-freq = 0.049411  C-freq = 0.000000     beta(X;Y,X) =    -18.24973514
@ B-freq = 0.049411  C-freq = 0.000000     beta(Y;Y,X) =      0.00074780
@ B-freq = 0.049411  C-freq = 0.000000     beta(Z;Y,X) =     -0.00101674
@ B-freq = 0.065882  C-freq = 0.000000     beta(X;Y,X) =    -18.90743441
@ B-freq = 0.065882  C-freq = 0.000000     beta(Y;Y,X) =      0.00085903
@ B-freq = 0.065882  C-freq = 0.000000     beta(Z;Y,X) =     -0.00100131
@ B-freq = 0.000000  C-freq = 0.000000     beta(X;Z,X) = beta(Z,X,X)
@ B-freq = 0.000000  C-freq = 0.000000     beta(Y;Z,X) = beta(Z,Y,X)
@ B-freq = 0.000000  C-freq = 0.000000     beta(X;Z,X) =      0.04098476
@ B-freq = 0.000000  C-freq = 0.000000     beta(Y;Z,X) =     -0.00104077
@ B-freq = 0.000000  C-freq = 0.000000     beta(Z;Z,X) =     -0.00371815
@ B-freq = 0.016470  C-freq = 0.000000     beta(X;Z,X) =      0.01590492
@ B-freq = 0.016470  C-freq = 0.000000     beta(Y;Z,X) =     -0.00103795
@ B-freq = 0.016470  C-freq = 0.000000     beta(Z;Z,X) =     -0.00374642
@ B-freq = 0.032941  C-freq = 0.000000     beta(X;Z,X) =     -0.06192956
@ B-freq = 0.032941  C-freq = 0.000000     beta(Y;Z,X) =     -0.00102972
@ B-freq = 0.032941  C-freq = 0.000000     beta(Z;Z,X) =     -0.00383401
@ B-freq = 0.049411  C-freq = 0.000000     beta(X;Z,X) =     -0.20077582
@ B-freq = 0.049411  C-freq = 0.000000     beta(Y;Z,X) =     -0.00101687
@ B-freq = 0.049411  C-freq = 0.000000     beta(Z;Z,X) =     -0.00398965
@ B-freq = 0.065882  C-freq = 0.000000     beta(X;Z,X) =     -0.41611419
[...]
@ B-freq = 0.049411  C-freq = 0.049411     beta(X;Z,Y) =     -0.00098131
@ B-freq = 0.049411  C-freq = 0.049411     beta(Y;Z,Y) =      0.20135156
@ B-freq = 0.049411  C-freq = 0.049411     beta(Z;Z,Y) =      0.01107685
@ B-freq = 0.065882  C-freq = 0.049411     beta(X;Z,Y) =     -0.00083070
@ B-freq = 0.065882  C-freq = 0.049411     beta(Y;Z,Y) =      0.00206157
@ B-freq = 0.065882  C-freq = 0.049411     beta(Z;Z,Y) =      0.01403520
@ B-freq = 0.000000  C-freq = 0.065882     beta(X;X,Y) = beta(X,Y,X)
@ B-freq = 0.000000  C-freq = 0.065882     beta(Y;X,Y) = beta(Y,Y,X)
@ B-freq = 0.000000  C-freq = 0.065882     beta(Z;X,Y) = beta(Z,Y,X)
@ B-freq = 0.016470  C-freq = 0.065882     beta(X;X,Y) = beta(X,Y,X)
@ B-freq = 0.016470  C-freq = 0.065882     beta(Y;X,Y) = beta(Y,Y,X)
@ B-freq = 0.016470  C-freq = 0.065882     beta(Z;X,Y) = beta(Z,Y,X)
@ B-freq = 0.032941  C-freq = 0.065882     beta(X;X,Y) = beta(X,Y,X)
@ B-freq = 0.032941  C-freq = 0.065882     beta(Y;X,Y) = beta(Y,Y,X)
@ B-freq = 0.032941  C-freq = 0.065882     beta(Z;X,Y) = beta(Z,Y,X)
@ B-freq = 0.049411  C-freq = 0.065882     beta(X;X,Y) = beta(X,Y,X)
@ B-freq = 0.049411  C-freq = 0.065882     beta(Y;X,Y) = beta(Y,Y,X)
@ B-freq = 0.049411  C-freq = 0.065882     beta(Z;X,Y) = beta(Z,Y,X)
@ B-freq = 0.065882  C-freq = 0.065882     beta(X;X,Y) = beta(X,Y,X)
@ B-freq = 0.065882  C-freq = 0.065882     beta(Y;X,Y) = beta(Y,Y,X)
@ B-freq = 0.065882  C-freq = 0.065882     beta(Z;X,Y) = beta(Z,Y,X)
@ B-freq = 0.000000  C-freq = 0.065882     beta(X;Y,Y) = beta(X,Y,Y)
@ B-freq = 0.000000  C-freq = 0.065882     beta(Y;Y,Y) = beta(Y,Y,Y)
@ B-freq = 0.000000  C-freq = 0.065882     beta(Z;Y,Y) = beta(Z,Y,Y)
@ B-freq = 0.016470  C-freq = 0.065882     beta(X;Y,Y) = beta(X,Y,Y)
@ B-freq = 0.016470  C-freq = 0.065882     beta(Y;Y,Y) = beta(Y,Y,Y)
@ B-freq = 0.016470  C-freq = 0.065882     beta(Z;Y,Y) = beta(Z,Y,Y)
@ B-freq = 0.032941  C-freq = 0.065882     beta(X;Y,Y) = beta(X,Y,Y)
@ B-freq = 0.032941  C-freq = 0.065882     beta(Y;Y,Y) = beta(Y,Y,Y)
@ B-freq = 0.032941  C-freq = 0.065882     beta(Z;Y,Y) = beta(Z,Y,Y)
@ B-freq = 0.049411  C-freq = 0.065882     beta(X;Y,Y) = beta(X,Y,Y)
@ B-freq = 0.049411  C-freq = 0.065882     beta(Y;Y,Y) = beta(Y,Y,Y)
@ B-freq = 0.049411  C-freq = 0.065882     beta(Z;Y,Y) = beta(Z,Y,Y)
@ B-freq = 0.065882  C-freq = 0.065882     beta(X;Y,Y) =     -0.00038846
@ B-freq = 0.065882  C-freq = 0.065882     beta(Y;Y,Y) =     22.40183511
@ B-freq = 0.065882  C-freq = 0.065882     beta(Z;Y,Y) =     -2.66031528
@ B-freq = 0.000000  C-freq = 0.065882     beta(X;Z,Y) =     -0.00108779
@ B-freq = 0.000000  C-freq = 0.065882     beta(Y;Z,Y) =      0.43767761
@ B-freq = 0.000000  C-freq = 0.065882     beta(Z;Z,Y) =      0.00694517
@ B-freq = 0.016470  C-freq = 0.065882     beta(X;Z,Y) =     -0.00107927
@ B-freq = 0.016470  C-freq = 0.065882     beta(Y;Z,Y) =      0.51878914
@ B-freq = 0.016470  C-freq = 0.065882     beta(Z;Z,Y) =      0.00803578
@ B-freq = 0.032941  C-freq = 0.065882     beta(X;Z,Y) =     -0.00103242
@ B-freq = 0.032941  C-freq = 0.065882     beta(Y;Z,Y) =      0.53491341
@ B-freq = 0.032941  C-freq = 0.065882     beta(Z;Z,Y) =      0.00973960
@ B-freq = 0.049411  C-freq = 0.065882     beta(X;Z,Y) =     -0.00091097
@ B-freq = 0.049411  C-freq = 0.065882     beta(Y;Z,Y) =      0.46252994
@ B-freq = 0.049411  C-freq = 0.065882     beta(Z;Z,Y) =      0.01228061
@ B-freq = 0.065882  C-freq = 0.065882     beta(X;Z,Y) =     -0.00064578
@ B-freq = 0.065882  C-freq = 0.065882     beta(Y;Z,Y) =      0.25821758
@ B-freq = 0.065882  C-freq = 0.065882     beta(Z;Z,Y) =      0.01603329
@ B-freq = 0.000000  C-freq = 0.000000     beta(X;X,Z) = beta(Z,X,X)
@ B-freq = 0.000000  C-freq = 0.000000     beta(Y;X,Z) = beta(Z,Y,X)
@ B-freq = 0.000000  C-freq = 0.000000     beta(Z;X,Z) = beta(Z,Z,X)
@ B-freq = 0.016470  C-freq = 0.000000     beta(X;X,Z) = beta(X,Z,X)
@ B-freq = 0.016470  C-freq = 0.000000     beta(Y;X,Z) = beta(Y,Z,X)
@ B-freq = 0.016470  C-freq = 0.000000     beta(Z;X,Z) = beta(Z,Z,X)
@ B-freq = 0.032941  C-freq = 0.000000     beta(X;X,Z) = beta(X,Z,X)
@ B-freq = 0.032941  C-freq = 0.000000     beta(Y;X,Z) = beta(Y,Z,X)
@ B-freq = 0.032941  C-freq = 0.000000     beta(Z;X,Z) = beta(Z,Z,X)
@ B-freq = 0.049411  C-freq = 0.000000     beta(X;X,Z) = beta(X,Z,X)
@ B-freq = 0.049411  C-freq = 0.000000     beta(Y;X,Z) = beta(Y,Z,X)
@ B-freq = 0.049411  C-freq = 0.000000     beta(Z;X,Z) = beta(Z,Z,X)
@ B-freq = 0.065882  C-freq = 0.000000     beta(X;X,Z) = beta(X,Z,X)
@ B-freq = 0.065882  C-freq = 0.000000     beta(Y;X,Z) = beta(Y,Z,X)
@ B-freq = 0.065882  C-freq = 0.000000     beta(Z;X,Z) = beta(Z,Z,X)
@ B-freq = 0.000000  C-freq = 0.000000     beta(X;Y,Z) = beta(Z,Y,X)
@ B-freq = 0.000000  C-freq = 0.000000     beta(Y;Y,Z) = beta(Z,Y,Y)
@ B-freq = 0.000000  C-freq = 0.000000     beta(Z;Y,Z) = beta(Z,Z,Y)
@ B-freq = 0.016470  C-freq = 0.000000     beta(X;Y,Z) = beta(X,Z,Y)
@ B-freq = 0.016470  C-freq = 0.000000     beta(Y;Y,Z) = beta(Y,Z,Y)
@ B-freq = 0.016470  C-freq = 0.000000     beta(Z;Y,Z) = beta(Z,Z,Y)
@ B-freq = 0.032941  C-freq = 0.000000     beta(X;Y,Z) = beta(X,Z,Y)
@ B-freq = 0.032941  C-freq = 0.000000     beta(Y;Y,Z) = beta(Y,Z,Y)
@ B-freq = 0.032941  C-freq = 0.000000     beta(Z;Y,Z) = beta(Z,Z,Y)
@ B-freq = 0.049411  C-freq = 0.000000     beta(X;Y,Z) = beta(X,Z,Y)
@ B-freq = 0.049411  C-freq = 0.000000     beta(Y;Y,Z) = beta(Y,Z,Y)
@ B-freq = 0.049411  C-freq = 0.000000     beta(Z;Y,Z) = beta(Z,Z,Y)
@ B-freq = 0.065882  C-freq = 0.000000     beta(X;Y,Z) = beta(X,Z,Y)
@ B-freq = 0.065882  C-freq = 0.000000     beta(Y;Y,Z) = beta(Y,Z,Y)
@ B-freq = 0.065882  C-freq = 0.000000     beta(Z;Y,Z) = beta(Z,Z,Y)
@ B-freq = 0.000000  C-freq = 0.000000     beta(X;Z,Z) = beta(Z,Z,X)
@ B-freq = 0.000000  C-freq = 0.000000     beta(Y;Z,Z) = beta(Z,Z,Y)
@ B-freq = 0.000000  C-freq = 0.000000     beta(X;Z,Z) =     -0.00371858
@ B-freq = 0.000000  C-freq = 0.000000     beta(Y;Z,Z) =      0.00688405
@ B-freq = 0.000000  C-freq = 0.000000     beta(Z;Z,Z) =    -22.06356116
@ B-freq = 0.016470  C-freq = 0.000000     beta(X;Z,Z) =     -0.00376530
@ B-freq = 0.016470  C-freq = 0.000000     beta(Y;Z,Z) =      0.00688976
@ B-freq = 0.016470  C-freq = 0.000000     beta(Z;Z,Z) =    -22.19511618
@ B-freq = 0.032941  C-freq = 0.000000     beta(X;Z,Z) =     -0.00391113
@ B-freq = 0.032941  C-freq = 0.000000     beta(Y;Z,Z) =      0.00690530
@ B-freq = 0.032941  C-freq = 0.000000     beta(Z;Z,Z) =    -22.59663554
@ B-freq = 0.049411  C-freq = 0.000000     beta(X;Z,Z) =     -0.00417437
@ B-freq = 0.049411  C-freq = 0.000000     beta(Y;Z,Z) =      0.00692548
@ B-freq = 0.049411  C-freq = 0.000000     beta(Z;Z,Z) =    -23.28942582
@ B-freq = 0.065882  C-freq = 0.000000     beta(X;Z,Z) =     -0.00459008
@ B-freq = 0.065882  C-freq = 0.000000     beta(Y;Z,Z) =      0.00694032
@ B-freq = 0.065882  C-freq = 0.000000     beta(Z;Z,Z) =    -24.31160144
@ B-freq = 0.000000  C-freq = 0.016470     beta(X;X,Z) = beta(X,Z,X)
@ B-freq = 0.000000  C-freq = 0.016470     beta(Y;X,Z) = beta(Y,Z,X)
@ B-freq = 0.000000  C-freq = 0.016470     beta(Z;X,Z) = beta(Z,Z,X)
@ B-freq = 0.016470  C-freq = 0.016470     beta(X;X,Z) = beta(X,Z,X)
@ B-freq = 0.016470  C-freq = 0.016470     beta(Y;X,Z) = beta(Y,Z,X)
@ B-freq = 0.016470  C-freq = 0.016470     beta(Z;X,Z) = beta(Z,Z,X)
@ B-freq = 0.032941  C-freq = 0.016470     beta(X;X,Z) = beta(X,Z,X)
@ B-freq = 0.032941  C-freq = 0.016470     beta(Y;X,Z) = beta(Y,Z,X)
@ B-freq = 0.032941  C-freq = 0.016470     beta(Z;X,Z) = beta(Z,Z,X)
@ B-freq = 0.049411  C-freq = 0.016470     beta(X;X,Z) = beta(X,Z,X)
@ B-freq = 0.049411  C-freq = 0.016470     beta(Y;X,Z) = beta(Y,Z,X)
@ B-freq = 0.049411  C-freq = 0.016470     beta(Z;X,Z) = beta(Z,Z,X)
@ B-freq = 0.065882  C-freq = 0.016470     beta(X;X,Z) = beta(X,Z,X)
@ B-freq = 0.065882  C-freq = 0.016470     beta(Y;X,Z) = beta(Y,Z,X)
@ B-freq = 0.065882  C-freq = 0.016470     beta(Z;X,Z) = beta(Z,Z,X)
@ B-freq = 0.000000  C-freq = 0.016470     beta(X;Y,Z) = beta(X,Z,Y)
@ B-freq = 0.000000  C-freq = 0.016470     beta(Y;Y,Z) = beta(Y,Z,Y)
@ B-freq = 0.000000  C-freq = 0.016470     beta(Z;Y,Z) = beta(Z,Z,Y)
@ B-freq = 0.016470  C-freq = 0.016470     beta(X;Y,Z) = beta(X,Z,Y)
@ B-freq = 0.016470  C-freq = 0.016470     beta(Y;Y,Z) = beta(Y,Z,Y)
@ B-freq = 0.016470  C-freq = 0.016470     beta(Z;Y,Z) = beta(Z,Z,Y)
@ B-freq = 0.032941  C-freq = 0.016470     beta(X;Y,Z) = beta(X,Z,Y)
@ B-freq = 0.032941  C-freq = 0.016470     beta(Y;Y,Z) = beta(Y,Z,Y)
@ B-freq = 0.032941  C-freq = 0.016470     beta(Z;Y,Z) = beta(Z,Z,Y)
@ B-freq = 0.049411  C-freq = 0.016470     beta(X;Y,Z) = beta(X,Z,Y)
@ B-freq = 0.049411  C-freq = 0.016470     beta(Y;Y,Z) = beta(Y,Z,Y)
@ B-freq = 0.049411  C-freq = 0.016470     beta(Z;Y,Z) = beta(Z,Z,Y)
@ B-freq = 0.065882  C-freq = 0.016470     beta(X;Y,Z) = beta(X,Z,Y)
@ B-freq = 0.065882  C-freq = 0.016470     beta(Y;Y,Z) = beta(Y,Z,Y)
@ B-freq = 0.065882  C-freq = 0.016470     beta(Z;Y,Z) = beta(Z,Z,Y)
@ B-freq = 0.000000  C-freq = 0.016470     beta(X;Z,Z) = beta(X,Z,Z)
@ B-freq = 0.000000  C-freq = 0.016470     beta(Y;Z,Z) = beta(Y,Z,Z)
@ B-freq = 0.000000  C-freq = 0.016470     beta(Z;Z,Z) = beta(Z,Z,Z)
@ B-freq = 0.016470  C-freq = 0.016470     beta(X;Z,Z) =     -0.00388120
@ B-freq = 0.016470  C-freq = 0.016470     beta(Y;Z,Z) =      0.00672001
@ B-freq = 0.016470  C-freq = 0.016470     beta(Z;Z,Z) =    -22.46164468
@ B-freq = 0.032941  C-freq = 0.016470     beta(X;Z,Z) =     -0.00410932
@ B-freq = 0.032941  C-freq = 0.016470     beta(Y;Z,Z) =      0.00654118
@ B-freq = 0.032941  C-freq = 0.016470     beta(Z;Z,Z) =    -23.00872746
@ B-freq = 0.049411  C-freq = 0.016470     beta(X;Z,Z) =     -0.00447999
@ B-freq = 0.049411  C-freq = 0.016470     beta(Y;Z,Z) =      0.00633183
@ B-freq = 0.049411  C-freq = 0.016470     beta(Z;Z,Z) =    -23.86595678
@ B-freq = 0.065882  C-freq = 0.016470     beta(X;Z,Z) =     -0.00504635
@ B-freq = 0.065882  C-freq = 0.016470     beta(Y;Z,Z) =      0.00606110
@ B-freq = 0.065882  C-freq = 0.016470     beta(Z;Z,Z) =    -25.08183390
@ B-freq = 0.000000  C-freq = 0.032941     beta(X;X,Z) = beta(X,Z,X)
@ B-freq = 0.000000  C-freq = 0.032941     beta(Y;X,Z) = beta(Y,Z,X)
@ B-freq = 0.000000  C-freq = 0.032941     beta(Z;X,Z) = beta(Z,Z,X)
@ B-freq = 0.016470  C-freq = 0.032941     beta(X;X,Z) = beta(X,Z,X)
@ B-freq = 0.016470  C-freq = 0.032941     beta(Y;X,Z) = beta(Y,Z,X)
@ B-freq = 0.016470  C-freq = 0.032941     beta(Z;X,Z) = beta(Z,Z,X)
@ B-freq = 0.032941  C-freq = 0.032941     beta(X;X,Z) = beta(X,Z,X)
@ B-freq = 0.032941  C-freq = 0.032941     beta(Y;X,Z) = beta(Y,Z,X)
@ B-freq = 0.032941  C-freq = 0.032941     beta(Z;X,Z) = beta(Z,Z,X)
@ B-freq = 0.049411  C-freq = 0.032941     beta(X;X,Z) = beta(X,Z,X)
@ B-freq = 0.049411  C-freq = 0.032941     beta(Y;X,Z) = beta(Y,Z,X)
@ B-freq = 0.049411  C-freq = 0.032941     beta(Z;X,Z) = beta(Z,Z,X)
@ B-freq = 0.065882  C-freq = 0.032941     beta(X;X,Z) = beta(X,Z,X)
@ B-freq = 0.065882  C-freq = 0.032941     beta(Y;X,Z) = beta(Y,Z,X)
@ B-freq = 0.065882  C-freq = 0.032941     beta(Z;X,Z) = beta(Z,Z,X)
@ B-freq = 0.000000  C-freq = 0.032941     beta(X;Y,Z) = beta(X,Z,Y)
@ B-freq = 0.000000  C-freq = 0.032941     beta(Y;Y,Z) = beta(Y,Z,Y)
@ B-freq = 0.000000  C-freq = 0.032941     beta(Z;Y,Z) = beta(Z,Z,Y)
@ B-freq = 0.016470  C-freq = 0.032941     beta(X;Y,Z) = beta(X,Z,Y)
@ B-freq = 0.016470  C-freq = 0.032941     beta(Y;Y,Z) = beta(Y,Z,Y)
@ B-freq = 0.016470  C-freq = 0.032941     beta(Z;Y,Z) = beta(Z,Z,Y)
@ B-freq = 0.032941  C-freq = 0.032941     beta(X;Y,Z) = beta(X,Z,Y)
@ B-freq = 0.032941  C-freq = 0.032941     beta(Y;Y,Z) = beta(Y,Z,Y)
@ B-freq = 0.032941  C-freq = 0.032941     beta(Z;Y,Z) = beta(Z,Z,Y)
@ B-freq = 0.049411  C-freq = 0.032941     beta(X;Y,Z) = beta(X,Z,Y)
@ B-freq = 0.049411  C-freq = 0.032941     beta(Y;Y,Z) = beta(Y,Z,Y)
@ B-freq = 0.049411  C-freq = 0.032941     beta(Z;Y,Z) = beta(Z,Z,Y)
@ B-freq = 0.065882  C-freq = 0.032941     beta(X;Y,Z) = beta(X,Z,Y)
@ B-freq = 0.065882  C-freq = 0.032941     beta(Y;Y,Z) = beta(Y,Z,Y)
@ B-freq = 0.065882  C-freq = 0.032941     beta(Z;Y,Z) = beta(Z,Z,Y)
@ B-freq = 0.000000  C-freq = 0.032941     beta(X;Z,Z) = beta(X,Z,Z)
@ B-freq = 0.000000  C-freq = 0.032941     beta(Y;Z,Z) = beta(Y,Z,Z)
@ B-freq = 0.000000  C-freq = 0.032941     beta(Z;Z,Z) = beta(Z,Z,Z)
@ B-freq = 0.016470  C-freq = 0.032941     beta(X;Z,Z) = beta(X,Z,Z)
@ B-freq = 0.016470  C-freq = 0.032941     beta(Y;Z,Z) = beta(Y,Z,Z)
@ B-freq = 0.016470  C-freq = 0.032941     beta(Z;Z,Z) = beta(Z,Z,Z)
@ B-freq = 0.032941  C-freq = 0.032941     beta(X;Z,Z) =     -0.00444441
@ B-freq = 0.032941  C-freq = 0.032941     beta(Y;Z,Z) =      0.00613618
@ B-freq = 0.032941  C-freq = 0.032941     beta(Z;Z,Z) =    -23.72006432
@ B-freq = 0.049411  C-freq = 0.032941     beta(X;Z,Z) =     -0.00496412
@ B-freq = 0.049411  C-freq = 0.032941     beta(Y;Z,Z) =      0.00564905
@ B-freq = 0.049411  C-freq = 0.032941     beta(Z;Z,Z) =    -24.77031639
@ B-freq = 0.065882  C-freq = 0.032941     beta(X;Z,Z) =     -0.00574961
@ B-freq = 0.065882  C-freq = 0.032941     beta(Y;Z,Z) =      0.00502264
@ B-freq = 0.065882  C-freq = 0.032941     beta(Z;Z,Z) =    -26.22133271
@ B-freq = 0.000000  C-freq = 0.049411     beta(X;X,Z) = beta(X,Z,X)
@ B-freq = 0.000000  C-freq = 0.049411     beta(Y;X,Z) = beta(Y,Z,X)
@ B-freq = 0.000000  C-freq = 0.049411     beta(Z;X,Z) = beta(Z,Z,X)
@ B-freq = 0.016470  C-freq = 0.049411     beta(X;X,Z) = beta(X,Z,X)
@ B-freq = 0.016470  C-freq = 0.049411     beta(Y;X,Z) = beta(Y,Z,X)
@ B-freq = 0.016470  C-freq = 0.049411     beta(Z;X,Z) = beta(Z,Z,X)
@ B-freq = 0.032941  C-freq = 0.049411     beta(X;X,Z) = beta(X,Z,X)
@ B-freq = 0.032941  C-freq = 0.049411     beta(Y;X,Z) = beta(Y,Z,X)
@ B-freq = 0.032941  C-freq = 0.049411     beta(Z;X,Z) = beta(Z,Z,X)
@ B-freq = 0.049411  C-freq = 0.049411     beta(X;X,Z) = beta(X,Z,X)
@ B-freq = 0.049411  C-freq = 0.049411     beta(Y;X,Z) = beta(Y,Z,X)
@ B-freq = 0.049411  C-freq = 0.049411     beta(Z;X,Z) = beta(Z,Z,X)
@ B-freq = 0.065882  C-freq = 0.049411     beta(X;X,Z) = beta(X,Z,X)
@ B-freq = 0.065882  C-freq = 0.049411     beta(Y;X,Z) = beta(Y,Z,X)
@ B-freq = 0.065882  C-freq = 0.049411     beta(Z;X,Z) = beta(Z,Z,X)
@ B-freq = 0.000000  C-freq = 0.049411     beta(X;Y,Z) = beta(X,Z,Y)
@ B-freq = 0.000000  C-freq = 0.049411     beta(Y;Y,Z) = beta(Y,Z,Y)
@ B-freq = 0.000000  C-freq = 0.049411     beta(Z;Y,Z) = beta(Z,Z,Y)
@ B-freq = 0.016470  C-freq = 0.049411     beta(X;Y,Z) = beta(X,Z,Y)
@ B-freq = 0.016470  C-freq = 0.049411     beta(Y;Y,Z) = beta(Y,Z,Y)
@ B-freq = 0.016470  C-freq = 0.049411     beta(Z;Y,Z) = beta(Z,Z,Y)
@ B-freq = 0.032941  C-freq = 0.049411     beta(X;Y,Z) = beta(X,Z,Y)
@ B-freq = 0.032941  C-freq = 0.049411     beta(Y;Y,Z) = beta(Y,Z,Y)
@ B-freq = 0.032941  C-freq = 0.049411     beta(Z;Y,Z) = beta(Z,Z,Y)
@ B-freq = 0.049411  C-freq = 0.049411     beta(X;Y,Z) = beta(X,Z,Y)
@ B-freq = 0.049411  C-freq = 0.049411     beta(Y;Y,Z) = beta(Y,Z,Y)
@ B-freq = 0.049411  C-freq = 0.049411     beta(Z;Y,Z) = beta(Z,Z,Y)
@ B-freq = 0.065882  C-freq = 0.049411     beta(X;Y,Z) = beta(X,Z,Y)
@ B-freq = 0.065882  C-freq = 0.049411     beta(Y;Y,Z) = beta(Y,Z,Y)
@ B-freq = 0.065882  C-freq = 0.049411     beta(Z;Y,Z) = beta(Z,Z,Y)
@ B-freq = 0.000000  C-freq = 0.049411     beta(X;Z,Z) = beta(X,Z,Z)
@ B-freq = 0.000000  C-freq = 0.049411     beta(Y;Z,Z) = beta(Y,Z,Z)
@ B-freq = 0.000000  C-freq = 0.049411     beta(Z;Z,Z) = beta(Z,Z,Z)
@ B-freq = 0.016470  C-freq = 0.049411     beta(X;Z,Z) = beta(X,Z,Z)
@ B-freq = 0.016470  C-freq = 0.049411     beta(Y;Z,Z) = beta(Y,Z,Z)
@ B-freq = 0.016470  C-freq = 0.049411     beta(Z;Z,Z) = beta(Z,Z,Z)
@ B-freq = 0.032941  C-freq = 0.049411     beta(X;Z,Z) = beta(X,Z,Z)
@ B-freq = 0.032941  C-freq = 0.049411     beta(Y;Z,Z) = beta(Y,Z,Z)
@ B-freq = 0.032941  C-freq = 0.049411     beta(Z;Z,Z) = beta(Z,Z,Z)
@ B-freq = 0.049411  C-freq = 0.049411     beta(X;Z,Z) =     -0.00570156
@ B-freq = 0.049411  C-freq = 0.049411     beta(Y;Z,Z) =      0.00481075
@ B-freq = 0.049411  C-freq = 0.049411     beta(Z;Z,Z) =    -26.05514068
@ B-freq = 0.065882  C-freq = 0.049411     beta(X;Z,Z) =     -0.00681913
@ B-freq = 0.065882  C-freq = 0.049411     beta(Y;Z,Z) =      0.00372665
@ B-freq = 0.065882  C-freq = 0.049411     beta(Z;Z,Z) =    -27.80023008
@ B-freq = 0.000000  C-freq = 0.065882     beta(X;X,Z) = beta(X,Z,X)
@ B-freq = 0.000000  C-freq = 0.065882     beta(Y;X,Z) = beta(Y,Z,X)
@ B-freq = 0.000000  C-freq = 0.065882     beta(Z;X,Z) = beta(Z,Z,X)
@ B-freq = 0.016470  C-freq = 0.065882     beta(X;X,Z) = beta(X,Z,X)
@ B-freq = 0.016470  C-freq = 0.065882     beta(Y;X,Z) = beta(Y,Z,X)
@ B-freq = 0.016470  C-freq = 0.065882     beta(Z;X,Z) = beta(Z,Z,X)
@ B-freq = 0.032941  C-freq = 0.065882     beta(X;X,Z) = beta(X,Z,X)
@ B-freq = 0.032941  C-freq = 0.065882     beta(Y;X,Z) = beta(Y,Z,X)
@ B-freq = 0.032941  C-freq = 0.065882     beta(Z;X,Z) = beta(Z,Z,X)
@ B-freq = 0.049411  C-freq = 0.065882     beta(X;X,Z) = beta(X,Z,X)
@ B-freq = 0.049411  C-freq = 0.065882     beta(Y;X,Z) = beta(Y,Z,X)
@ B-freq = 0.049411  C-freq = 0.065882     beta(Z;X,Z) = beta(Z,Z,X)
@ B-freq = 0.065882  C-freq = 0.065882     beta(X;X,Z) = beta(X,Z,X)
@ B-freq = 0.065882  C-freq = 0.065882     beta(Y;X,Z) = beta(Y,Z,X)
@ B-freq = 0.065882  C-freq = 0.065882     beta(Z;X,Z) = beta(Z,Z,X)
@ B-freq = 0.000000  C-freq = 0.065882     beta(X;Y,Z) = beta(X,Z,Y)
@ B-freq = 0.000000  C-freq = 0.065882     beta(Y;Y,Z) = beta(Y,Z,Y)
@ B-freq = 0.000000  C-freq = 0.065882     beta(Z;Y,Z) = beta(Z,Z,Y)
@ B-freq = 0.016470  C-freq = 0.065882     beta(X;Y,Z) = beta(X,Z,Y)
@ B-freq = 0.016470  C-freq = 0.065882     beta(Y;Y,Z) = beta(Y,Z,Y)
@ B-freq = 0.016470  C-freq = 0.065882     beta(Z;Y,Z) = beta(Z,Z,Y)
@ B-freq = 0.032941  C-freq = 0.065882     beta(X;Y,Z) = beta(X,Z,Y)
@ B-freq = 0.032941  C-freq = 0.065882     beta(Y;Y,Z) = beta(Y,Z,Y)
@ B-freq = 0.032941  C-freq = 0.065882     beta(Z;Y,Z) = beta(Z,Z,Y)
@ B-freq = 0.049411  C-freq = 0.065882     beta(X;Y,Z) = beta(X,Z,Y)
@ B-freq = 0.049411  C-freq = 0.065882     beta(Y;Y,Z) = beta(Y,Z,Y)
@ B-freq = 0.049411  C-freq = 0.065882     beta(Z;Y,Z) = beta(Z,Z,Y)
@ B-freq = 0.065882  C-freq = 0.065882     beta(X;Y,Z) = beta(X,Z,Y)
@ B-freq = 0.065882  C-freq = 0.065882     beta(Y;Y,Z) = beta(Y,Z,Y)
@ B-freq = 0.065882  C-freq = 0.065882     beta(Z;Y,Z) = beta(Z,Z,Y)
@ B-freq = 0.000000  C-freq = 0.065882     beta(X;Z,Z) = beta(X,Z,Z)
@ B-freq = 0.000000  C-freq = 0.065882     beta(Y;Z,Z) = beta(Y,Z,Z)
@ B-freq = 0.000000  C-freq = 0.065882     beta(Z;Z,Z) = beta(Z,Z,Z)
@ B-freq = 0.016470  C-freq = 0.065882     beta(X;Z,Z) = beta(X,Z,Z)
@ B-freq = 0.016470  C-freq = 0.065882     beta(Y;Z,Z) = beta(Y,Z,Z)
@ B-freq = 0.016470  C-freq = 0.065882     beta(Z;Z,Z) = beta(Z,Z,Z)
@ B-freq = 0.032941  C-freq = 0.065882     beta(X;Z,Z) = beta(X,Z,Z)
@ B-freq = 0.032941  C-freq = 0.065882     beta(Y;Z,Z) = beta(Y,Z,Z)
@ B-freq = 0.032941  C-freq = 0.065882     beta(Z;Z,Z) = beta(Z,Z,Z)
@ B-freq = 0.049411  C-freq = 0.065882     beta(X;Z,Z) = beta(X,Z,Z)
@ B-freq = 0.049411  C-freq = 0.065882     beta(Y;Z,Z) = beta(Y,Z,Z)
@ B-freq = 0.049411  C-freq = 0.065882     beta(Z;Z,Z) = beta(Z,Z,Z)
@ B-freq = 0.065882  C-freq = 0.065882     beta(X;Z,Z) =     -0.00845933
@ B-freq = 0.065882  C-freq = 0.065882     beta(Y;Z,Z) =      0.00204299
@ B-freq = 0.065882  C-freq = 0.065882     beta(Z;Z,Z) =    -29.92348437

  Total CPU  time used in RESPONSE:  10.13 seconds
  Total wall time used in RESPONSE:  10.16 seconds


                   .-------------------------------------------.
                   | End of Dynamic Property Section (RESPONS) |
                   `-------------------------------------------'

  Total CPU  time used in DALTON:  10.67 seconds
  Total wall time used in DALTON:  10.72 seconds

 
     Date and time (Linux)  : Fri Sep 29 06:26:05 2023
     Host name              : sn-mem                                  
