

     ************************************************************************
     *************** Dalton - An Electronic Structure Program ***************
     ************************************************************************

    This is output from DALTON release Dalton2020.0 (2020)
         ( Web site: http://daltonprogram.org )

   ----------------------------------------------------------------------------

    NOTE:
     
    Dalton is an experimental code for the evaluation of molecular
    properties using (MC)SCF, DFT, CI, and CC wave functions.
    The authors accept no responsibility for the performance of
    the code or for the correctness of the results.
     
    The code (in whole or part) is provided under a licence and
    is not to be reproduced for further distribution without
    the written permission of the authors or their representatives.
     
    See the home page "http://daltonprogram.org" for further information.
     
    If results obtained with this code are published,
    the appropriate citations would be both of:
     
       K. Aidas, C. Angeli, K. L. Bak, V. Bakken, R. Bast,
       L. Boman, O. Christiansen, R. Cimiraglia, S. Coriani,
       P. Dahle, E. K. Dalskov, U. Ekstroem,
       T. Enevoldsen, J. J. Eriksen, P. Ettenhuber, B. Fernandez,
       L. Ferrighi, H. Fliegl, L. Frediani, K. Hald, A. Halkier,
       C. Haettig, H. Heiberg, T. Helgaker, A. C. Hennum,
       H. Hettema, E. Hjertenaes, S. Hoest, I.-M. Hoeyvik,
       M. F. Iozzi, B. Jansik, H. J. Aa. Jensen, D. Jonsson,
       P. Joergensen, J. Kauczor, S. Kirpekar,
       T. Kjaergaard, W. Klopper, S. Knecht, R. Kobayashi, H. Koch,
       J. Kongsted, A. Krapp, K. Kristensen, A. Ligabue,
       O. B. Lutnaes, J. I. Melo, K. V. Mikkelsen, R. H. Myhre,
       C. Neiss, C. B. Nielsen, P. Norman, J. Olsen,
       J. M. H. Olsen, A. Osted, M. J. Packer, F. Pawlowski,
       T. B. Pedersen, P. F. Provasi, S. Reine, Z. Rinkevicius,
       T. A. Ruden, K. Ruud, V. Rybkin, P. Salek, C. C. M. Samson,
       A. Sanchez de Meras, T. Saue, S. P. A. Sauer,
       B. Schimmelpfennig, K. Sneskov, A. H. Steindal,
       K. O. Sylvester-Hvid, P. R. Taylor, A. M. Teale,
       E. I. Tellgren, D. P. Tew, A. J. Thorvaldsen, L. Thoegersen,
       O. Vahtras, M. A. Watson, D. J. D. Wilson, M. Ziolkowski
       and H. Agren,
       "The Dalton quantum chemistry program system",
       WIREs Comput. Mol. Sci. 2014, 4:269–284 (doi: 10.1002/wcms.1172)
     
    and
     
       Dalton, a molecular electronic structure program,
       Release Dalton2020.0 (2020), see http://daltonprogram.org
   ----------------------------------------------------------------------------

    Authors in alphabetical order (Major contribution(s) in parenthesis):

  Kestutis Aidas,           Vilnius University,           Lithuania   (QM/MM)
  Celestino Angeli,         University of Ferrara,        Italy       (NEVPT2)
  Keld L. Bak,              UNI-C,                        Denmark     (AOSOPPA, non-adiabatic coupling, magnetic properties)
  Vebjoern Bakken,          University of Oslo,           Norway      (DALTON; geometry optimizer, symmetry detection)
  Radovan Bast,             UiT The Arctic U. of Norway,  Norway      (DALTON installation and execution frameworks)
  Pablo Baudin,             University of Valencia,       Spain       (Cholesky excitation energies)
  Linus Boman,              NTNU,                         Norway      (Cholesky decomposition and subsystems)
  Bruno N. Cabral Tenorio,  Technical Univ. of Denmark,   Denmark     (Lanczos-based CC methods)
  Ove Christiansen,         Aarhus University,            Denmark     (CC module)
  Renzo Cimiraglia,         University of Ferrara,        Italy       (NEVPT2)
  Sonia Coriani,            Technical Univ. of Denmark,   Denmark     (CC and RESPONS modules)
  Janusz Cukras,            University of Warsaw,         Poland      (MChD in RESPONS)
  Paal Dahle,               University of Oslo,           Norway      (Parallelization)
  Erik K. Dalskov,          UNI-C,                        Denmark     (SOPPA)
  Thomas Enevoldsen,        Univ. of Southern Denmark,    Denmark     (SOPPA)
  Janus J. Eriksen,         Aarhus University,            Denmark     (Polarizable embedding, TDA)
  Rasmus Faber,             Technical Univ. of Denmark,   Denmark     (Vib.avg. NMR w. SOPPA, parallel AO-SOPPA, CVS-CC and EOMCC)
  Tobias Fahleson,          KTH Stockholm,                Sweden      (Damped cubic response)
  Berta Fernandez,          U. of Santiago de Compostela, Spain       (Doublet spin, ESR in RESPONS)
  Lara Ferrighi,            Aarhus University,            Denmark     (PCM Cubic response)
  Heike Fliegl,             University of Oslo,           Norway      (CCSD(R12))
  Luca Frediani,            UiT The Arctic U. of Norway,  Norway      (PCM)
  Emmanuel Fromager,        Univ. Strasbourg,             France      (MC-srDFT)
  Bin Gao,                  UiT The Arctic U. of Norway,  Norway      (Gen1Int library)
  Andre S. P. Gomes,        CNRS/Universite de Lille,     France      (Frozen density embedding)
  Christof Haettig,         Ruhr-University Bochum,       Germany     (CC module)
  Kasper Hald,              Aarhus University,            Denmark     (CC module)
  Asger Halkier,            Aarhus University,            Denmark     (CC module)
  Frederik Beyer Hansen,    University of Copenhagen,     Denmark     (Parallel AO-SOPPA)
  Erik D. Hedegaard,        Univ. of Southern Denmark,    Denmark     (Polarizable embedding, QM/MM, and MC-srDFT)
  Hanne Heiberg,            University of Oslo,           Norway      (Geometry analysis, selected one-electron integrals)
  Trygve Helgaker,          University of Oslo,           Norway      (DALTON; ABACUS, ERI, DFT modules, London, and much more)
  Alf Christian Hennum,     University of Oslo,           Norway      (Parity violation)
  Hinne Hettema,            University of Auckland,       New Zealand (Quadratic response in RESPONS; SIRIUS supersymmetry)
  Eirik Hjertenaes,         NTNU,                         Norway      (Cholesky decomposition)
  Pi A. B. Haase,           University of Copenhagen,     Denmark     (Triplet AO-SOPPA)
  Maria Francesca Iozzi,    University of Oslo,           Norway      (RPA)
  Christoph Jacob           TU Braunschweig               Germany     (Frozen density embedding)
  Brano Jansik              Technical Univ. of Ostrava    Czech Rep.  (DFT cubic response)
  Hans Joergen Aa. Jensen,  Univ. of Southern Denmark,    Denmark     (DALTON; SIRIUS, RESPONS, ABACUS, MC-srDFT, and much more)
  Dan Jonsson,              UiT The Arctic U. of Norway,  Norway      (Cubic response in RESPONS module)
  Poul Joergensen,          Aarhus University,            Denmark     (RESPONS, ABACUS, and CC modules)
  Maciej Kaminski,          University of Warsaw,         Poland      (CPPh in RESPONS)
  Joanna Kauczor,           Linkoeping University,        Sweden      (Complex polarization propagator (CPP) module)
  Sheela Kirpekar,          Univ. of Southern Denmark,    Denmark     (Mass-velocity & Darwin integrals)
  Erik Kjellgren,           Univ. of Southern Denmark,    Denmark     (MC-srDFT)
  Wim Klopper,              KIT Karlsruhe,                Germany     (R12 code in CC, SIRIUS, and ABACUS modules)
  Stefan Knecht,            ETH Zurich,                   Switzerland (Parallel CI and MCSCF, MC-srDFT)
  Rika Kobayashi,           Australian National Univ.,    Australia   (DIIS in CC, London in MCSCF)
  Henrik Koch,              NTNU,                         Norway      (CC module, Cholesky decomposition)
  Jacob Kongsted,           Univ. of Southern Denmark,    Denmark     (Polarizable embedding, polarizable density embedding, QM/MM)
  Andrea Ligabue,           University of Modena,         Italy       (CTOCD, AOSOPPA)
  Nanna H. List             Univ. of Southern Denmark,    Denmark     (Polarizable embedding)
  Ola B. Lutnaes,           University of Oslo,           Norway      (DFT Hessian)
  Juan I. Melo,             University of Buenos Aires,   Argentina   (LRESC, Relativistic Effects on NMR Shieldings)
  Kurt V. Mikkelsen,        University of Copenhagen,     Denmark     (MC-SCRF and QM/MM)
  Rolf H. Myhre,            NTNU,                         Norway      (Subsystems and CC3)
  Christian Neiss,          Univ. Erlangen-Nuernberg,     Germany     (CCSD(R12))
  Christian B. Nielsen,     University of Copenhagen,     Denmark     (QM/MM)
  Patrick Norman,           KTH Stockholm,                Sweden      (Cubic response and complex frequency response in RESPONS)
  Jeppe Olsen,              Aarhus University,            Denmark     (SIRIUS CI/density modules)
  Jogvan Magnus H. Olsen,   Aarhus University,            Denmark     (Polarizable embedding and polarizable density embedding)
  Anders Osted,             Copenhagen University,        Denmark     (QM/MM)
  Martin J. Packer,         University of Sheffield,      UK          (SOPPA)
  Filip Pawlowski,          Kazimierz Wielki University,  Poland      (CC3)
  Morten N. Pedersen,       Univ. of Southern Denmark,    Denmark     (Polarizable embedding)
  Thomas B. Pedersen,       University of Oslo,           Norway      (Cholesky decomposition)
  Patricio F. Provasi,      University of Northeastern,   Argentina   (Analysis of coupling constants in localized orbitals)
  Peter Reinholdt,          Univ. of Southern Denmark,    Denmark     (Polarizable embedding and polarizable density embedding)
  Zilvinas Rinkevicius,     KTH Stockholm,                Sweden      (open-shell DFT, ESR)
  Elias Rudberg,            KTH Stockholm,                Sweden      (DFT grid and basis info)
  Torgeir A. Ruden,         University of Oslo,           Norway      (Numerical derivatives in ABACUS)
  Kenneth Ruud,             UiT The Arctic U. of Norway,  Norway      (DALTON; ABACUS magnetic properties and much more)
  Pawel Salek,              KTH Stockholm,                Sweden      (DALTON; DFT code)
  Claire C. M. Samson       University of Karlsruhe       Germany     (Boys localization, r12 integrals in ERI)
  Alfredo Sanchez de Meras, University of Valencia,       Spain       (CC module, Cholesky decomposition)
  Trond Saue,               Paul Sabatier University,     France      (direct Fock matrix construction)
  Stephan P. A. Sauer,      University of Copenhagen,     Denmark     (SOPPA(CCSD), SOPPA prop., AOSOPPA, vibrational g-factors)
  Bernd Schimmelpfennig,    Forschungszentrum Karlsruhe,  Germany     (AMFI module)
  Anna K. Schnack-Petersen, University of Copenhagen,     Denmark     (RPA(D) and HRPA(D) properties in AOSOPPA)
  Kristian Sneskov,         Aarhus University,            Denmark     (Polarizable embedding, QM/MM)
  Arnfinn H. Steindal,      UiT The Arctic U. of Norway,  Norway      (parallel QM/MM, polarizable embedding)
  Casper Steinmann,         Aalborg University,           Denmark     (QFIT, polarizable embedding)
  K. O. Sylvester-Hvid,     University of Copenhagen,     Denmark     (MC-SCRF)
  Peter R. Taylor,          VLSCI/Univ. of Melbourne,     Australia   (Symmetry handling ABACUS, integral transformation)
  Andrew M. Teale,          University of Nottingham,     England     (DFT-AC, DFT-D)
  David P. Tew,             University of Bristol,        England     (CCSD(R12))
  Julien Toulouse,          Sorbonne Univ.,               France      (MC-srDFT)
  Olav Vahtras,             KTH Stockholm,                Sweden      (Triplet response, spin-orbit, ESR, TDDFT, open-shell DFT)
  Lucas Visscher,           Vrije Universiteit Amsterdam, Netherlands (Frozen density embedding)
  David J. Wilson,          La Trobe University,          Australia   (DFT Hessian and DFT magnetizabilities)
  Hans Agren,               KTH Stockholm,                Sweden      (SIRIUS module, RESPONS, MC-SCRF solvation)
 --------------------------------------------------------------------------------

     Date and time (Linux)  : Wed Sep 13 19:47:36 2023
     Host name              : sn-mem                                  

 * Work memory size             :    64000000 =  488.28 megabytes.

 * Directories for basis set searches:
   1) /gpfs/projects/rjh/adrian/august_no_symmetry/dalton/hf/NOCl/dipole
   2) /gpfs/projects/rjh/adrian/dalton/build/basis


Compilation information
-----------------------

 Who compiled             | ahurtado
 Host                     | sn-mem
 System                   | Linux-3.10.0-1160.24.1.el7.x86_64
 CMake generator          | Unix Makefiles
 Processor                | x86_64
 64-bit integers          | OFF
 MPI                      | ON
 Fortran compiler         | /gpfs/software/intel/oneAPI/2021_4/mpi/2021.4.0/bi
                          | n/mpif90
 Fortran compiler version | GNU Fortran (GCC) 11.2.0
 C compiler               | /gpfs/software/intel/oneAPI/2021_4/mpi/2021.4.0/bi
                          | n/mpicc
 C compiler version       | gcc (GCC) 11.2.0
 C++ compiler             | /gpfs/software/intel/oneAPI/2021_4/mpi/2021.4.0/bi
                          | n/mpicxx
 C++ compiler version     | unknown
 BLAS                     | /gpfs/software/intel/oneAPI/2021_4/mkl/2021.4.0/li
                          | b/intel64/libmkl_gf_lp64.so;/gpfs/software/intel/o
                          | neAPI/2021_4/mkl/2021.4.0/lib/intel64/libmkl_seque
                          | ntial.so;/gpfs/software/intel/oneAPI/2021_4/mkl/20
                          | 21.4.0/lib/intel64/libmkl_core.so;/usr/lib64/libpt
                          | hread.so;/usr/lib64/libm.so
 LAPACK                   | /gpfs/software/intel/oneAPI/2021_4/mkl/2021.4.0/li
                          | b/intel64/libmkl_lapack95_lp64.a;/gpfs/software/in
                          | tel/oneAPI/2021_4/mkl/2021.4.0/lib/intel64/libmkl_
                          | gf_lp64.so
 Static linking           | OFF
 Last Git revision        | 66052b3af5ea7225e31178bf9a8b031913c72190
 Git branch               | (HEAD detached at Dalton2020.0)
 Configuration time       | 2023-01-11 13:33:37.731835

 * MPI parallel run using 5 processes.


   Content of the .dal input file
 ----------------------------------

**DALTON INPUT
.RUN RESPONSE
.DIRECT
**WAVE FUNCTIONS
.HF
**PROPERTIES
**RESPONSE
*QUADRA
.DIPLEN
.FREQUENCIES
5
0.0 0.0063445625 0.012689125 0.0190336875 0.02537825
**END OF DALTON INPUT


   Content of the .mol file
 ----------------------------

BASIS
d-aug-cc-pVDZ
blah
blah
Atomtype=3 Angstrom Charge=0 Nosymmmetry
Charge=17 Atoms=1
Cl_a -0.531200001141 -0.929799999232 0.000000000000
Charge=7 Atoms=1
N_a 0.000000000000 0.972399997674 0.000000000000
Charge=8 Atoms=1
O_a 1.128700001162 1.124999999397 0.000000000000


       *******************************************************************
       *********** Output from DALTON general input processing ***********
       *******************************************************************

 --------------------------------------------------------------------------------
   Overall default print level:    0
   Print level for DALTON.STAT:    1

    Parallel calculation using MPI
    AO-direct calculation (in sections where implemented)
    HERMIT 1- and 2-electron integral sections will be executed
    "Old" integral transformation used (limited to max 255 basis functions)
    Wave function sections will be executed (SIRIUS module)
    Dynamic molecular response properties section will be executed (RESPONSE module)
 --------------------------------------------------------------------------------


   ****************************************************************************
   *************** Output of molecule and basis set information ***************
   ****************************************************************************


    The two title cards from your ".mol" input:
    ------------------------------------------------------------------------
 1: blah                                                                    
 2: blah                                                                    
    ------------------------------------------------------------------------

  Coordinates are entered in Angstrom and converted to atomic units.
          - Conversion factor : 1 bohr = 0.52917721 A

  Atomic type no.    1
  --------------------
  Nuclear charge:  17.00000
  Number of symmetry independent centers:    1
  Number of basis sets to read;    2
  Basis set file used for this atomic type with Z =  17 :
     "/gpfs/projects/rjh/adrian/dalton/build/basis/aug-cc-pVDZ"

  Atomic type no.    2
  --------------------
  Nuclear charge:   7.00000
  Number of symmetry independent centers:    1
  Number of basis sets to read;    2
  Basis set file used for this atomic type with Z =   7 :
     "/gpfs/projects/rjh/adrian/dalton/build/basis/aug-cc-pVDZ"

  Atomic type no.    3
  --------------------
  Nuclear charge:   8.00000
  Number of symmetry independent centers:    1
  Number of basis sets to read;    2
  Basis set file used for this atomic type with Z =   8 :
     "/gpfs/projects/rjh/adrian/dalton/build/basis/aug-cc-pVDZ"


                         SYMGRP: Point group information
                         -------------------------------

@    Point group: C1 


                                 Isotopic Masses
                                 ---------------

                           Cl_a       34.968853
                           N_a        14.003074
                           O_a        15.994915

                       Total mass:    64.966842 amu
                       Natural abundance:  75.308 %

 Center-of-mass coordinates (a.u.):   -0.015184   -0.026271    0.000000
 Center-of-mass coordinates (Angs):   -0.008035   -0.013902    0.000000


  Atoms and basis sets
  --------------------

  Number of atom types :    3
  Total number of atoms:    3

  Basis set used is "d-aug-cc-pVDZ" from the basis set library.

  label    atoms   charge   prim   cont     basis
  ----------------------------------------------------------------------
  Cl          1   17.0000    59    36      [14s10p3d|6s5p3d]                                  
  N_          1    7.0000    44    32      [11s6p3d|5s4p3d]                                   
  O_          1    8.0000    44    32      [11s6p3d|5s4p3d]                                   
  ----------------------------------------------------------------------
  total:      3   32.0000   147   100
  ----------------------------------------------------------------------
  Spherical harmonic basis used.

  Threshold for neglecting AO integrals:  1.00D-12


  Cartesian Coordinates (a.u.)
  ----------------------------

  Total number of coordinates:    9
  Cl_a    :     1  x  -1.0038225198    2  y  -1.7570673496    3  z   0.0000000000
  N_a     :     4  x   0.0000000000    5  y   1.8375696795    6  z   0.0000000000
  O_a     :     7  x   2.1329338795    8  y   2.1259418895    9  z   0.0000000000


   Interatomic separations (in Angstrom):
   --------------------------------------

            Cl_a        N_a         O_a   
            ------      ------      ------
 Cl_a  :    0.000000
 N_a   :    1.974978    0.000000
 O_a   :    2.641490    1.138969    0.000000


  Max    interatomic separation is    2.6415 Angstrom (    4.9917 Bohr)
  between atoms    3 and    1, "O_a   " and "Cl_a  ".

  Min YX interatomic separation is    1.1390 Angstrom (    2.1523 Bohr)


  Bond distances (Angstrom):
  --------------------------

                  atom 1     atom 2       distance
                  ------     ------       --------
  bond distance:  N_a        Cl_a         1.974978
  bond distance:  O_a        N_a          1.138969


  Bond angles (degrees):
  ----------------------

                  atom 1     atom 2     atom 3         angle
                  ------     ------     ------         -----
  bond angle:     Cl_a       N_a        O_a          113.302




 Principal moments of inertia (u*A**2) and principal axes
 --------------------------------------------------------

   IA       5.840433          0.544616    0.838686    0.000000
   IB      88.102929          0.838686   -0.544616    0.000000
   IC      93.943362          0.000000    0.000000    1.000000


 Rotational constants
 --------------------

@    The molecule is planar.

               A                   B                   C

          86531.0810           5736.2339           5379.6138 MHz
            2.886366            0.191340            0.179445 cm-1


@  Nuclear repulsion energy :   85.148419784453 Hartree


                     .---------------------------------------.
                     | Starting in Integral Section (HERMIT) |
                     `---------------------------------------'



 ***************************************************************************************
 ****************** Output from **INTEGRALS input processing (HERMIT) ******************
 ***************************************************************************************


 - Using defaults, no **INTEGRALS input found

 Default print level:        1

 Calculation of one-electron Hamiltonian integrals.

 Center of mass  (bohr):     -0.015183530523     -0.026271029737      0.000000000000
 Operator center (bohr):      0.000000000000      0.000000000000      0.000000000000
 Gauge origin    (bohr):      0.000000000000      0.000000000000      0.000000000000
 Dipole origin   (bohr):      0.000000000000      0.000000000000      0.000000000000


     ************************************************************************
     ************************** Output from HERINT **************************
     ************************************************************************



                      Nuclear contribution to dipole moments
                      --------------------------------------

                 au               Debye          C m (/(10**-30)

      x     -0.00151180        -0.00384261        -0.01281757
      y      0.00037793         0.00096060         0.00320422
      z      0.00000000         0.00000000         0.00000000


  Total CPU  time used in HERMIT:   0.19 seconds
  Total wall time used in HERMIT:   0.21 seconds


                        .----------------------------------.
                        | End of Integral Section (HERMIT) |
                        `----------------------------------'



                   .--------------------------------------------.
                   | Starting in Wave Function Section (SIRIUS) |
                   `--------------------------------------------'


 *** Output from Huckel module :

     Using EWMO model:          T
     Using EHT  model:          F
     Number of Huckel orbitals each symmetry:   24

 EWMO - Energy Weighted Maximum Overlap - is a Huckel type method,
        which normally is better than Extended Huckel Theory.
 Reference: Linderberg and Ohrn, Propagators in Quantum Chemistry (Wiley, 1973)

 Huckel EWMO eigenvalues for symmetry :  1
         -104.883930     -20.685569     -15.673202     -10.608489      -8.072407
           -8.072214      -8.072213      -1.708026      -1.175229      -0.898477
           -0.756044      -0.739435      -0.598849      -0.506247      -0.484719
           -0.442076      -0.370251      -0.309233      -0.187242      -0.055540
           -0.055527      -0.054317      -0.054072      -0.050572

 **********************************************************************
 *SIRIUS* a direct, restricted step, second order MCSCF program       *
 **********************************************************************

 
     Date and time (Linux)  : Wed Sep 13 19:47:36 2023
     Host name              : sn-mem                                  

 Title lines from ".mol" input file:
     blah                                                                    
     blah                                                                    

 Print level on unit LUPRI =   2 is   0
 Print level on unit LUW4  =   2 is   5

@    Restricted, closed shell Hartree-Fock calculation.

@    Time-dependent Hartree-Fock calculation (random phase approximation).
 Fock matrices are calculated directly and in parallel without use of integrals on disk.

 Initial molecular orbitals are obtained according to
 ".MOSTART EWMO  " input option

     Wave function specification
     ============================
@    Wave function type        --- HF ---
@    Number of closed shell electrons          32
@    Number of electrons in active shells       0
@    Total charge of the molecule               0

@    Spin multiplicity and 2 M_S                1         0
@    Total number of symmetries                 1 (point group: C1 )
@    Reference state symmetry                   1 (irrep name : A  )

     Orbital specifications
     ======================
@    Abelian symmetry species          All |    1
@                                          |  A  
                                       --- |  ---
@    Occupied SCF orbitals              16 |   16
@    Secondary orbitals                 84 |   84
@    Total number of orbitals          100 |  100
@    Number of basis functions         100 |  100

     Optimization information
     ========================
@    Number of configurations                 1
@    Number of orbital rotations           1344
     ------------------------------------------
@    Total number of variables             1345

     Maximum number of Fock   iterations      0
     Maximum number of DIIS   iterations     60
     Maximum number of QC-SCF iterations     60
     Threshold for SCF convergence     1.00D-05


 ***********************************************
 ***** DIIS acceleration of SCF iterations *****
 ***********************************************

 C1-DIIS algorithm; max error vectors =    8

 Iter      Total energy        Error norm    Delta(E)  DIIS dim.
 -----------------------------------------------------------------------------
   1  Screening settings (-IFTHRS, JTDIIS, DIFDEN, times)   -8    1    T  3.03D-01  3.30D-01
@  1    -588.333473587        2.56968D+00   -5.88D+02    1
      Virial theorem: -V/T =      2.000876
@    MULPOP   Cl_a   -0.10; N_a     0.66; O_a    -0.57; 
   1  Level shift: doubly occupied orbital energies shifted by -2.00D-01
 -----------------------------------------------------------------------------
   2  Screening settings (-IFTHRS, JTDIIS, DIFDEN, times)   -8    2    T  3.27D-01  3.40D-01
@  2    -588.665362037        1.00307D+00   -3.32D-01    2
      Virial theorem: -V/T =      2.000400
@    MULPOP   Cl_a    0.03; N_a    -0.04; O_a     0.01; 
   2  Level shift: doubly occupied orbital energies shifted by -1.00D-01
 -----------------------------------------------------------------------------
   3  Screening settings (-IFTHRS, JTDIIS, DIFDEN, times)   -8    3    T  3.18D-01  3.19D-01
@  3    -588.718650789        3.67347D-01   -5.33D-02    3
      Virial theorem: -V/T =      2.000296
@    MULPOP   Cl_a   -0.11; N_a     0.25; O_a    -0.15; 
   3  Level shift: doubly occupied orbital energies shifted by -5.00D-02
 -----------------------------------------------------------------------------
   4  Screening settings (-IFTHRS, JTDIIS, DIFDEN, times)   -8    4    T  3.37D-01  3.38D-01
@  4    -588.727017255        9.52413D-02   -8.37D-03    4
      Virial theorem: -V/T =      2.000826
@    MULPOP   Cl_a   -0.12; N_a     0.15; O_a    -0.03; 
   4  Level shift: doubly occupied orbital energies shifted by -2.50D-02
 -----------------------------------------------------------------------------
   5  Screening settings (-IFTHRS, JTDIIS, DIFDEN, times)  -12    5    F  3.04D-01  3.05D-01
@  5    -588.728067960        3.40518D-02   -1.05D-03    5
      Virial theorem: -V/T =      2.000689
@    MULPOP   Cl_a   -0.12; N_a     0.16; O_a    -0.04; 
   5  Level shift: doubly occupied orbital energies shifted by -1.25D-02
 -----------------------------------------------------------------------------
   6  Screening settings (-IFTHRS, JTDIIS, DIFDEN, times)  -12    6    T  3.14D-01  3.14D-01
@  6    -588.728261144        1.53037D-02   -1.93D-04    6
      Virial theorem: -V/T =      2.000677
@    MULPOP   Cl_a   -0.13; N_a     0.16; O_a    -0.03; 
 -----------------------------------------------------------------------------
   7  Screening settings (-IFTHRS, JTDIIS, DIFDEN, times)  -12    7    T  3.42D-01  3.43D-01
@  7    -588.728315293        5.11403D-03   -5.41D-05    7
      Virial theorem: -V/T =      2.000692
@    MULPOP   Cl_a   -0.13; N_a     0.16; O_a    -0.03; 
 -----------------------------------------------------------------------------
   8  Screening settings (-IFTHRS, JTDIIS, DIFDEN, times)  -12    8    T  3.13D-01  3.14D-01
@  8    -588.728322499        2.15286D-03   -7.21D-06    8
      Virial theorem: -V/T =      2.000683
@    MULPOP   Cl_a   -0.13; N_a     0.16; O_a    -0.03; 
 -----------------------------------------------------------------------------
   9  Screening settings (-IFTHRS, JTDIIS, DIFDEN, times)  -12    9    T  3.08D-01  3.09D-01
@  9    -588.728323816        7.66603D-04   -1.32D-06    8
      Virial theorem: -V/T =      2.000684
@    MULPOP   Cl_a   -0.13; N_a     0.15; O_a    -0.03; 
 -----------------------------------------------------------------------------
  10  Screening settings (-IFTHRS, JTDIIS, DIFDEN, times)  -12   10    T  3.21D-01  3.22D-01
@ 10    -588.728323991        2.76124D-04   -1.75D-07    8
      Virial theorem: -V/T =      2.000684
@    MULPOP   Cl_a   -0.13; N_a     0.15; O_a    -0.03; 
 -----------------------------------------------------------------------------
  11  Screening settings (-IFTHRS, JTDIIS, DIFDEN, times)  -12   11    T  2.99D-01  3.00D-01
@ 11    -588.728324017        9.01686D-05   -2.52D-08    8
      Virial theorem: -V/T =      2.000683
@    MULPOP   Cl_a   -0.13; N_a     0.15; O_a    -0.03; 
 -----------------------------------------------------------------------------
  12  Screening settings (-IFTHRS, JTDIIS, DIFDEN, times)  -12   12    T  3.17D-01  3.18D-01
@ 12    -588.728324019        3.19861D-05   -2.36D-09    8
      Virial theorem: -V/T =      2.000683
@    MULPOP   Cl_a   -0.13; N_a     0.15; O_a    -0.03; 
 -----------------------------------------------------------------------------
  13  Screening settings (-IFTHRS, JTDIIS, DIFDEN, times)  -12   13    T  2.94D-01  2.94D-01
@ 13    -588.728324019        1.87136D-05   -9.97D-11    8
      Virial theorem: -V/T =      2.000683
@    MULPOP   Cl_a   -0.13; N_a     0.15; O_a    -0.03; 
 -----------------------------------------------------------------------------
  14  Screening settings (-IFTHRS, JTDIIS, DIFDEN, times)  -12   14    T  2.92D-01  2.94D-01
@ 14    -588.728324019        4.42552D-06   -3.93D-11    8

@ *** DIIS converged in  14 iterations !
@     Converged SCF energy, gradient:   -588.728324019108    4.43D-06
    - total time used in SIRFCK :              0.00 seconds


 *** SCF orbital energy analysis ***

 Only the 20 lowest virtual orbital energies printed in each symmetry.

 Number of electrons :   32
 Orbital occupations :   16

 Sym       Hartree-Fock orbital energies

1 A    -104.83435443   -20.77064642   -15.86973912   -10.55897401    -8.02605150
         -8.02306780    -8.02290800    -1.69235857    -1.10767505    -0.97276075
         -0.77436580    -0.76648935    -0.72900200    -0.45830586    -0.45800740
         -0.43246407     0.01552532     0.02435211     0.02823886     0.02897094
          0.03148837     0.04054741     0.04436164     0.04530436     0.05383884
          0.05893974     0.06026419     0.07167888     0.08153355     0.08571538
          0.15544201     0.16195438     0.16832794     0.18372190     0.18888634
          0.19285287

    E(LUMO) :     0.01552532 au (symmetry 1)
  - E(HOMO) :    -0.43246407 au (symmetry 1)
  ------------------------------------------
    gap     :     0.44798939 au

 --- Writing SIRIFC interface file

 CPU and wall time for SCF :       4.544       4.601


                       .-----------------------------------.
                       | --- Final results from SIRIUS --- |
                       `-----------------------------------'


@    Spin multiplicity:           1
@    Spatial symmetry:            1 ( irrep  A   in C1  )
@    Total charge of molecule:    0

@    Final HF energy:            -588.728324019108                 
@    Nuclear repulsion:            85.148419784453
@    Electronic energy:          -673.876743803561

@    Final gradient norm:           0.000004425522

 
     Date and time (Linux)  : Wed Sep 13 19:47:41 2023
     Host name              : sn-mem                                  

File label for MO orbitals:  13Sep23   FOCKDIIS

 (Only coefficients > 0.0100 are printed.)

 Molecular orbitals for symmetry species 1  (A  )
 ------------------------------------------------

    Orbital         7        8        9       10       11       12       13
   3 Cl_a:1s     0.0001  -0.0352  -0.7883   0.4770  -0.1466   0.2733   0.0000
   4 Cl_a:1s    -0.0004   0.0142   0.0029   0.0254  -0.0343   0.0421  -0.0000
   5 Cl_a:1s    -0.0016  -0.0153   0.0153  -0.0260  -0.0230   0.0300  -0.0000
   6 Cl_a:1s    -0.0002  -0.0162   0.0231  -0.0385  -0.0039  -0.0013  -0.0000
   7 Cl_a:2px    0.9626   0.0005   0.0011  -0.0001  -0.0011   0.0008   0.0000
   8 Cl_a:2py   -0.2704   0.0013   0.0040   0.0010  -0.0017   0.0044  -0.0000
  10 Cl_a:2px   -0.0029  -0.0092  -0.0227  -0.0142   0.1000  -0.0303   0.0000
  11 Cl_a:2py    0.0008  -0.0185  -0.0858  -0.0808   0.1103  -0.2425  -0.0000
  12 Cl_a:2pz   -0.0000  -0.0000  -0.0000  -0.0000   0.0000   0.0000   0.0904
  13 Cl_a:2px    0.0020   0.0068   0.0078   0.0092  -0.0165   0.0085   0.0000
  14 Cl_a:2py   -0.0007   0.0171   0.0261   0.0265  -0.0421   0.0567   0.0000
  16 Cl_a:2px    0.0016  -0.0095   0.0111  -0.0074   0.0137   0.0136  -0.0000
  17 Cl_a:2py   -0.0009  -0.0024   0.0285  -0.0243  -0.0072  -0.0023  -0.0000
  22 Cl_a:3d2-   0.0001  -0.0033  -0.0080  -0.0029   0.0129  -0.0071  -0.0000
  24 Cl_a:3d0    0.0000   0.0023   0.0085   0.0042  -0.0072   0.0121  -0.0000
  26 Cl_a:3d2+   0.0001   0.0026   0.0133   0.0076  -0.0046   0.0209  -0.0000
  37 N_a :1s    -0.0000   0.0031   0.0000  -0.0113  -0.0038   0.0026  -0.0000
  38 N_a :1s    -0.0000  -0.5586  -0.3593  -0.6361  -0.1245  -0.3125  -0.0000
  39 N_a :1s     0.0004   0.2098  -0.0338   0.0037  -0.0353  -0.1433   0.0000
  40 N_a :1s     0.0020  -0.0352  -0.0157   0.0294   0.0010   0.0606   0.0000
  41 N_a :1s     0.0004  -0.0330  -0.0103   0.0225  -0.0041   0.0283   0.0000
  42 N_a :2px    0.0000  -0.3001   0.1420   0.0188   0.2731   0.6336   0.0000
  43 N_a :2py    0.0000  -0.0287   0.1410  -0.0824  -0.4522   0.1506  -0.0000
  44 N_a :2pz   -0.0000   0.0000   0.0000  -0.0000  -0.0000  -0.0000   0.5626
  45 N_a :2px    0.0001   0.1652  -0.0336  -0.0178  -0.0699  -0.0967  -0.0000
  46 N_a :2py   -0.0002   0.0369   0.0114   0.0201   0.0429  -0.0049  -0.0000
  47 N_a :2pz   -0.0000  -0.0000  -0.0000  -0.0000   0.0000   0.0000  -0.0721
  48 N_a :2px   -0.0036   0.0071   0.0142   0.0029   0.0129   0.0314   0.0000
  49 N_a :2py    0.0010  -0.0324   0.0402  -0.0339  -0.0576   0.0551  -0.0000
  50 N_a :2pz   -0.0000   0.0000   0.0000   0.0000  -0.0000  -0.0000   0.0863
  51 N_a :2px    0.0001  -0.0134  -0.0023  -0.0032   0.0038   0.0019   0.0000
  53 N_a :2pz    0.0000  -0.0000  -0.0000  -0.0000  -0.0000  -0.0000  -0.0110
  54 N_a :3d2-   0.0000  -0.0057   0.0019  -0.0035  -0.0402   0.0102   0.0000
  56 N_a :3d0    0.0000   0.0173   0.0020   0.0003  -0.0078  -0.0137  -0.0000
  57 N_a :3d1+   0.0000   0.0000  -0.0000   0.0000  -0.0000  -0.0000   0.0494
  58 N_a :3d2+   0.0000  -0.0309   0.0156  -0.0037   0.0124   0.0315   0.0000
  59 N_a :3d2-  -0.0002   0.0061  -0.0014  -0.0011   0.0136  -0.0156  -0.0000
  63 N_a :3d2+  -0.0000   0.0227   0.0140  -0.0111  -0.0220   0.0247   0.0000
  64 N_a :3d2-   0.0024  -0.0060   0.0238   0.0022  -0.0150   0.0299  -0.0000
  66 N_a :3d0   -0.0003  -0.0063  -0.0133  -0.0078  -0.0034  -0.0076  -0.0000
  67 N_a :3d1+  -0.0000   0.0000   0.0000   0.0000   0.0000  -0.0000   0.0403
  68 N_a :3d2+  -0.0002  -0.0038  -0.0066   0.0020   0.0229   0.0052  -0.0000
  70 O_a :1s     0.0001  -0.7265   0.3085   0.5214  -0.0454  -0.1312   0.0000
  71 O_a :1s    -0.0001   0.0209   0.0255   0.1247  -0.0003  -0.1038  -0.0000
  72 O_a :1s    -0.0002   0.0440  -0.0077   0.0414  -0.0193  -0.1259  -0.0000
  73 O_a :1s    -0.0004   0.0683  -0.0046   0.0145   0.0162  -0.0356  -0.0000
  74 O_a :2px   -0.0000   0.2520   0.0918   0.4482  -0.0496  -0.5808  -0.0000
  75 O_a :2py   -0.0000   0.0360   0.0741   0.0073  -0.7418   0.0966  -0.0000
  76 O_a :2pz   -0.0000   0.0000  -0.0000  -0.0000  -0.0000  -0.0000   0.6975
  77 O_a :2px    0.0002  -0.0323  -0.0259  -0.0886   0.0025   0.0678   0.0000
  78 O_a :2py    0.0003  -0.0093  -0.0171  -0.0074   0.0208   0.0146   0.0000
  80 O_a :2px    0.0012  -0.0488  -0.0083  -0.0123  -0.0335   0.0037   0.0000
  81 O_a :2py   -0.0016   0.0101  -0.0513   0.0106   0.0571  -0.0520  -0.0000
  82 O_a :2pz    0.0000  -0.0000  -0.0000  -0.0000  -0.0000  -0.0000  -0.0830
  86 O_a :3d2-   0.0000  -0.0055  -0.0050  -0.0019   0.0256  -0.0005   0.0000
  88 O_a :3d0    0.0000   0.0105   0.0021   0.0074  -0.0031  -0.0084   0.0000
  89 O_a :3d1+  -0.0000  -0.0000  -0.0000  -0.0000   0.0000   0.0000  -0.0305
  90 O_a :3d2+  -0.0000  -0.0174  -0.0021  -0.0149  -0.0021   0.0161  -0.0000
  91 O_a :3d2-  -0.0002  -0.0002  -0.0005   0.0007   0.0292  -0.0086  -0.0000
  94 O_a :3d1+  -0.0000   0.0000  -0.0000  -0.0000  -0.0000  -0.0000  -0.0426
  96 O_a :3d2-  -0.0001   0.0001   0.0152  -0.0033  -0.0149   0.0140  -0.0000
  99 O_a :3d1+  -0.0000   0.0000   0.0000   0.0000   0.0000  -0.0000   0.0205
 100 O_a :3d2+   0.0001   0.0117   0.0049   0.0024   0.0155   0.0057  -0.0000

    Orbital        14       15       16       17       18       19       20
   3 Cl_a:1s     0.0000   0.0123  -0.0197  -0.0135   0.0723   0.0000  -0.0016
   4 Cl_a:1s    -0.0000   0.0048  -0.0313  -0.0140   0.0092  -0.0000   0.0115
   5 Cl_a:1s     0.0000   0.0025   0.1212   0.6438   0.5594   0.0000  -0.4715
   6 Cl_a:1s     0.0000  -0.0020   0.0610   0.4421   7.0937   0.0000  -1.3585
  10 Cl_a:2px   -0.0000  -0.9523   0.0267   0.0050   0.0190   0.0000   0.0591
  11 Cl_a:2py    0.0000   0.1363   0.7307   0.0477   0.0461   0.0000   0.0511
  12 Cl_a:2pz    0.9503  -0.0000  -0.0000  -0.0000  -0.0000   0.1725  -0.0000
  13 Cl_a:2px    0.0000  -0.0104  -0.0161   0.0099   0.0045   0.0000  -0.0076
  14 Cl_a:2py   -0.0000   0.0016  -0.0143   0.0555   0.0119  -0.0000  -0.0179
  15 Cl_a:2pz    0.0143   0.0000   0.0000   0.0000   0.0000   0.0353   0.0000
  16 Cl_a:2px    0.0000  -0.0808   0.0170   0.0950   0.2849  -0.0000   0.1138
  17 Cl_a:2py    0.0000   0.0138   0.0876   0.3177   0.8651   0.0000  -0.3164
  18 Cl_a:2pz    0.0589  -0.0000   0.0000  -0.0000  -0.0000   0.1609  -0.0000
  19 Cl_a:2px    0.0000   0.0022   0.0021  -0.4023   0.3753  -0.0000  -0.9104
  20 Cl_a:2py    0.0000  -0.0031  -0.0023  -0.1883   1.6005  -0.0000  -0.8669
  21 Cl_a:2pz   -0.0005  -0.0000   0.0000   0.0000   0.0000   0.3473   0.0000
  22 Cl_a:3d2-   0.0000  -0.0078   0.0148  -0.0032  -0.0022  -0.0000  -0.0032
  23 Cl_a:3d1-   0.0095   0.0000   0.0000  -0.0000  -0.0000  -0.0313  -0.0000
  24 Cl_a:3d0    0.0000   0.0022  -0.0109   0.0042   0.0023  -0.0000   0.0044
  26 Cl_a:3d2+   0.0000   0.0012  -0.0190   0.0057   0.0043  -0.0000   0.0046
  27 Cl_a:3d2-   0.0000  -0.0035  -0.0064   0.0092  -0.0136  -0.0000  -0.0018
  28 Cl_a:3d1-   0.0110   0.0000   0.0000  -0.0000  -0.0000  -0.0229  -0.0000
  29 Cl_a:3d0    0.0000   0.0026   0.0033  -0.0055   0.0124  -0.0000  -0.0038
  31 Cl_a:3d2+   0.0000  -0.0000   0.0007  -0.0037   0.0232  -0.0000   0.0107
  32 Cl_a:3d2-   0.0000  -0.0178   0.0073   0.0002   0.1007  -0.0000   0.0167
  34 Cl_a:3d0    0.0000   0.0018  -0.0044   0.0032  -0.0927  -0.0000   0.0450
  35 Cl_a:3d1+   0.0025   0.0000   0.0000  -0.0000  -0.0000  -0.0112  -0.0000
  36 Cl_a:3d2+   0.0000  -0.0083  -0.0064  -0.0175  -0.1434  -0.0000   0.0462
  37 N_a :1s     0.0000   0.0037  -0.0121  -0.0050  -0.0004   0.0000   0.0019
  38 N_a :1s     0.0000   0.0080  -0.2588  -0.0594  -0.0318   0.0000  -0.0399
  39 N_a :1s    -0.0000  -0.0519  -0.0739   0.1498  -0.0412   0.0000  -0.1312
  40 N_a :1s    -0.0000  -0.0249  -0.2852   1.4238  -1.5623   0.0000  -0.3329
  41 N_a :1s    -0.0000  -0.0162  -0.0722   6.1032  -8.1009   0.0000  -1.0115
  42 N_a :2px    0.0000   0.0279   0.2272   0.0411   0.0044   0.0000   0.0118
  43 N_a :2py    0.0000   0.0145  -0.3408   0.0348   0.1072   0.0000   0.0493
  44 N_a :2pz   -0.0036  -0.0000   0.0000   0.0000   0.0000  -0.6590   0.0000
  45 N_a :2px   -0.0000  -0.0424  -0.0618   0.1307  -0.0257   0.0000  -0.0284
  46 N_a :2py   -0.0000   0.0423  -0.1207   0.0394   0.0178  -0.0000  -0.0155
  47 N_a :2pz    0.0284   0.0000  -0.0000  -0.0000  -0.0000  -0.1563  -0.0000
  48 N_a :2px   -0.0000   0.0429   0.0512   0.9336   0.1131   0.0000  -0.1969
  49 N_a :2py    0.0000  -0.0086   0.0020   0.4480   0.7092  -0.0000  -0.3628
  50 N_a :2pz   -0.0085  -0.0000   0.0000   0.0000   0.0000  -0.4448   0.0000
  51 N_a :2px    0.0000   0.0024  -0.0072   1.2160   0.1914   0.0000  -0.8466
  52 N_a :2py   -0.0000   0.0058   0.0230   1.2057   2.4362   0.0000   1.6274
  53 N_a :2pz   -0.0049   0.0000  -0.0000  -0.0000  -0.0000  -1.3092  -0.0000
  54 N_a :3d2-  -0.0000  -0.0012   0.0237  -0.0004  -0.0009   0.0000  -0.0001
  56 N_a :3d0    0.0000   0.0001  -0.0149  -0.0014  -0.0004  -0.0000  -0.0000
  57 N_a :3d1+  -0.0110   0.0000  -0.0000   0.0000   0.0000   0.0127   0.0000
  58 N_a :3d2+  -0.0000   0.0119  -0.0148   0.0026   0.0000   0.0000   0.0001
  59 N_a :3d2-   0.0000   0.0338  -0.0103   0.0014   0.0009  -0.0000  -0.0125
  60 N_a :3d1-  -0.0186  -0.0000  -0.0000   0.0000   0.0000   0.0087   0.0000
  61 N_a :3d0    0.0000   0.0057  -0.0125  -0.0077  -0.0022  -0.0000  -0.0043
  63 N_a :3d2+  -0.0000   0.0046  -0.0485   0.0270  -0.0077   0.0000  -0.0064
  64 N_a :3d2-   0.0000  -0.0325  -0.0216  -0.0058   0.0520  -0.0000   0.0831
  65 N_a :3d1-   0.0161   0.0000   0.0000  -0.0000  -0.0000   0.0100  -0.0000
  66 N_a :3d0    0.0000   0.0021   0.0123  -0.0038  -0.0151  -0.0000  -0.0523
  67 N_a :3d1+   0.0038  -0.0000  -0.0000   0.0000   0.0000   0.0197   0.0000
  68 N_a :3d2+   0.0000  -0.0003   0.0373   0.1871   0.0352  -0.0000   0.0112
  70 O_a :1s    -0.0000   0.0294   0.0278  -0.0337   0.0041  -0.0000   0.0175
  71 O_a :1s     0.0000   0.0274   0.0576  -0.0987   0.0147  -0.0000   0.0202
  72 O_a :1s     0.0000   0.0186   0.0713  -1.6465   0.1829  -0.0000   0.3562
  73 O_a :1s    -0.0000   0.0231   0.0363  -6.2298   1.4076  -0.0000   3.2652
  74 O_a :2px    0.0000  -0.0234  -0.1330  -0.0277   0.0031   0.0000   0.0021
  75 O_a :2py    0.0000  -0.1776   0.4912  -0.0372  -0.0722   0.0000  -0.0286
  76 O_a :2pz   -0.1705   0.0000  -0.0000  -0.0000  -0.0000   0.5479  -0.0000
  77 O_a :2px   -0.0000  -0.0070  -0.0274   0.0891  -0.0137   0.0000  -0.0238
  78 O_a :2py   -0.0000  -0.0413   0.0662   0.0028  -0.0201   0.0000  -0.0076
  79 O_a :2pz   -0.0185  -0.0000   0.0000   0.0000   0.0000   0.1314   0.0000
  80 O_a :2px    0.0000  -0.0143  -0.0742   0.3570  -0.1964   0.0000  -0.3206
  81 O_a :2py   -0.0000  -0.0094   0.1008   0.0569  -0.1952   0.0000   0.0496
  82 O_a :2pz   -0.0230   0.0000  -0.0000  -0.0000  -0.0000   0.3240  -0.0000
  83 O_a :2px    0.0000  -0.0053   0.0024   1.0035  -0.0954  -0.0000  -0.3434
  84 O_a :2py    0.0000  -0.0055  -0.0068  -0.4285  -0.3491  -0.0000  -1.5231
  85 O_a :2pz    0.0031  -0.0000   0.0000   0.0000   0.0000   0.8551   0.0000
  89 O_a :3d1+   0.0038   0.0000  -0.0000  -0.0000  -0.0000   0.0107  -0.0000
  91 O_a :3d2-   0.0000   0.0168  -0.0191  -0.0050  -0.0037  -0.0000  -0.0040
  93 O_a :3d0   -0.0000  -0.0005   0.0062   0.0110  -0.0005   0.0000  -0.0016
  95 O_a :3d2+   0.0000  -0.0011   0.0053  -0.0177  -0.0023   0.0000   0.0058
  96 O_a :3d2-   0.0000   0.0107  -0.0138  -0.0110   0.0490  -0.0000  -0.0146
  98 O_a :3d0   -0.0000  -0.0062  -0.0107  -0.0038  -0.0184   0.0000  -0.0264
  99 O_a :3d1+   0.0037  -0.0000  -0.0000   0.0000   0.0000   0.0106   0.0000
 100 O_a :3d2+  -0.0000  -0.0026   0.0095  -0.0165   0.0484  -0.0000   0.0588

    Orbital        21       22       23       24       25       26
   3 Cl_a:1s    -0.0000   0.0781   0.0103  -0.0000  -0.0816  -0.0000
   4 Cl_a:1s     0.0000   0.0834  -0.0057   0.0000  -0.0820   0.0000
   5 Cl_a:1s     0.0000  -0.8688  -0.7580  -0.0000   0.6566  -0.0000
   6 Cl_a:1s    -0.0000  -4.1512  -2.4960  -0.0000   3.6226  -0.0000
  10 Cl_a:2px   -0.0000   0.0592   0.0385  -0.0000  -0.0546  -0.0000
  11 Cl_a:2py   -0.0000   0.2683   0.0147  -0.0000  -0.2513  -0.0000
  12 Cl_a:2pz    0.0212  -0.0000  -0.0000  -0.0601   0.0000  -0.0539
  13 Cl_a:2px   -0.0000   0.0079   0.0018   0.0000  -0.0266  -0.0000
  14 Cl_a:2py    0.0000   0.0196  -0.0403   0.0000  -0.0884   0.0000
  15 Cl_a:2pz   -0.0206   0.0000   0.0000   0.0159  -0.0000  -0.0071
  16 Cl_a:2px    0.0000  -0.2754   0.5595  -0.0000   0.2710   0.0000
  17 Cl_a:2py   -0.0000  -0.7464  -0.7793  -0.0000   0.1710  -0.0000
  18 Cl_a:2pz    0.4352  -0.0000  -0.0000  -0.4598   0.0000  -0.1030
  19 Cl_a:2px    0.0000   1.6104  -2.2177  -0.0000   1.8196   0.0000
  20 Cl_a:2py    0.0000   0.4536   1.3669  -0.0000   0.9491   0.0000
  21 Cl_a:2pz   -0.2750   0.0000   0.0000   2.7278  -0.0000   0.7350
  22 Cl_a:3d2-   0.0000  -0.0178  -0.0024  -0.0000   0.0165   0.0000
  24 Cl_a:3d0    0.0000   0.0184   0.0037  -0.0000  -0.0173  -0.0000
  26 Cl_a:3d2+   0.0000   0.0299   0.0059  -0.0000  -0.0267   0.0000
  27 Cl_a:3d2-   0.0000  -0.0164   0.0029  -0.0000  -0.0171   0.0000
  29 Cl_a:3d0    0.0000   0.0117   0.0056  -0.0000  -0.0037  -0.0000
  30 Cl_a:3d1+   0.0042  -0.0000  -0.0000   0.0036   0.0000   0.0159
  31 Cl_a:3d2+   0.0000   0.0135   0.0073  -0.0000   0.0009   0.0000
  32 Cl_a:3d2-   0.0000  -0.0746   0.1042  -0.0000   0.0890   0.0000
  33 Cl_a:3d1-   0.1240  -0.0000  -0.0000  -0.0591   0.0000   0.0057
  34 Cl_a:3d0    0.0000   0.0930   0.0394  -0.0000   0.0242  -0.0000
  35 Cl_a:3d1+   0.0092  -0.0000  -0.0000  -0.0347   0.0000  -0.0397
  36 Cl_a:3d2+   0.0000   0.1361   0.1632  -0.0000  -0.0424   0.0000
  38 N_a :1s    -0.0000  -0.1434  -0.0130   0.0000   0.1316  -0.0000
  39 N_a :1s    -0.0000  -0.0602  -0.0046   0.0000   0.1065  -0.0000
  40 N_a :1s    -0.0000   1.7843   1.0361   0.0000   0.2590  -0.0000
  41 N_a :1s    -0.0000   3.4366   4.5827   0.0000  -3.6522  -0.0000
  42 N_a :2px   -0.0000   0.0367   0.0038   0.0000  -0.0250  -0.0000
  43 N_a :2py   -0.0000   0.3659   0.0496  -0.0000  -0.3434  -0.0000
  44 N_a :2pz    0.1790   0.0000   0.0000   0.1120  -0.0000   0.1576
  45 N_a :2px   -0.0000   0.0481  -0.0266   0.0000   0.0229  -0.0000
  46 N_a :2py    0.0000   0.0830   0.0153  -0.0000  -0.0803   0.0000
  47 N_a :2pz    0.0636  -0.0000  -0.0000   0.0451   0.0000   0.0471
  48 N_a :2px   -0.0000   0.0626  -1.0270   0.0000   0.4260  -0.0000
  49 N_a :2py    0.0000  -0.2018   0.2767  -0.0000   1.1394   0.0000
  50 N_a :2pz    0.2501   0.0000   0.0000   0.8663  -0.0000  -0.1583
  51 N_a :2px   -0.0000  -2.2688   2.5165   0.0000  -4.1940  -0.0000
  52 N_a :2py   -0.0000  -2.7314  -2.4202   0.0000   0.0806  -0.0000
  53 N_a :2pz   -1.2847  -0.0000  -0.0000  -3.1115   0.0000  -4.0893
  60 N_a :3d1-  -0.0126   0.0000   0.0000   0.0030  -0.0000  -0.0014
  61 N_a :3d0    0.0000  -0.0138   0.0038  -0.0000  -0.0204   0.0000
  62 N_a :3d1+   0.0044  -0.0000   0.0000   0.0117  -0.0000   0.0164
  63 N_a :3d2+  -0.0000   0.0078  -0.0273   0.0000   0.0002  -0.0000
  64 N_a :3d2-   0.0000   0.1093   0.4675  -0.0000   0.2683   0.0000
  65 N_a :3d1-   0.1867  -0.0000  -0.0000  -0.0867   0.0000  -0.0180
  66 N_a :3d0    0.0000  -0.0660  -0.0249  -0.0000   0.0487   0.0000
  67 N_a :3d1+   0.1362   0.0000   0.0000   0.1202  -0.0000  -0.1250
  68 N_a :3d2+   0.0000  -0.0950  -0.1625  -0.0000   0.2241   0.0000
  70 O_a :1s     0.0000   0.0032  -0.0148   0.0000   0.0088   0.0000
  71 O_a :1s     0.0000  -0.0466   0.0338  -0.0000  -0.0202   0.0000
  72 O_a :1s     0.0000  -0.5931   0.3096  -0.0000  -0.6800   0.0000
  73 O_a :1s     0.0000   0.0270  -3.0598  -0.0000   0.3850   0.0000
  74 O_a :2px   -0.0000  -0.0228  -0.0044   0.0000   0.0054  -0.0000
  75 O_a :2py    0.0000  -0.1696  -0.0204  -0.0000   0.1884   0.0000
  76 O_a :2pz   -0.1017  -0.0000  -0.0000  -0.0670   0.0000  -0.1785
  77 O_a :2px   -0.0000   0.0376  -0.0196   0.0000   0.0267  -0.0000
  78 O_a :2py   -0.0000  -0.0355  -0.0082   0.0000   0.0571  -0.0000
  79 O_a :2pz   -0.0282   0.0000   0.0000  -0.0204  -0.0000  -0.0329
  80 O_a :2px   -0.0000   0.1769   0.4212   0.0000  -0.0652  -0.0000
  81 O_a :2py   -0.0000  -0.3245  -0.6082   0.0000  -0.5402  -0.0000
  82 O_a :2pz   -0.4055  -0.0000  -0.0000  -0.5236   0.0000   0.0011
  83 O_a :2px    0.0000   0.3916  -0.0913  -0.0000   3.0472   0.0000
  84 O_a :2py    0.0000   0.8345   0.4644  -0.0000   0.6369   0.0000
  85 O_a :2pz    0.3915   0.0000   0.0000   0.6010  -0.0000   3.9079
  94 O_a :3d1+  -0.0038  -0.0000   0.0000  -0.0032  -0.0000   0.0190
  96 O_a :3d2-   0.0000   0.0319   0.0642  -0.0000   0.1414   0.0000
  97 O_a :3d1-  -0.0296   0.0000   0.0000   0.0249  -0.0000  -0.0170
  98 O_a :3d0   -0.0000   0.0110   0.0892   0.0000  -0.0473  -0.0000
  99 O_a :3d1+   0.0778   0.0000   0.0000   0.1059  -0.0000  -0.0813
 100 O_a :3d2+   0.0000  -0.0238  -0.0686  -0.0000  -0.0275   0.0000

  Total CPU  time used in SIRIUS :   4.62 seconds
  Total wall time used in SIRIUS :   4.69 seconds

 
     Date and time (Linux)  : Wed Sep 13 19:47:41 2023
     Host name              : sn-mem                                  


                     .---------------------------------------.
                     | End of Wave Function Section (SIRIUS) |
                     `---------------------------------------'



                 .------------------------------------------------.
                 | Starting in Dynamic Property Section (RESPONS) |
                 `------------------------------------------------'


 ----------------------------------------------------------------------------------------
  RESPONSE  -  an MCSCF, MC-srDFT, DFT, SOPPA and SOPPA-srDFT response property program
 ----------------------------------------------------------------------------------------


 -------- OUTPUT FROM RESPONSE INPUT PROCESSING --------




 Quadratic Response calculation
 ------------------------------

 First hyperpolarizability calculation : HYPCAL= T

 Spin of operator A , ISPINA=    0
 Spin of operator B , ISPINB=    0
 Spin of operator C , ISPINC=    0

  5 B-frequencies  0.000000D+00  6.344563D-03  1.268913D-02  1.903369D-02  2.537825D-02
  5 C-frequencies  0.000000D+00  6.344563D-03  1.268913D-02  1.903369D-02  2.537825D-02


 Print level                                    : IPRHYP =   2
 Maximum number of iterations in lin.rsp. solver: MAXITL =  60
 Threshold for convergence of linear resp. eq.s : THCLR  = 1.000D-03
 Maximum iterations in optimal orbital algorithm: MAXITO =   5
 Direct one-index transformation                : DIROIT = T

    3 A OPERATORS OF SYMMETRY NO:    1 AND LABELS:

          XDIPLEN 
          YDIPLEN 
          ZDIPLEN 

    3 B OPERATORS OF SYMMETRY NO:    1 AND LABELS:

          XDIPLEN 
          YDIPLEN 
          ZDIPLEN 

    3 C OPERATORS OF SYMMETRY NO:    1 AND LABELS:

          XDIPLEN 
          YDIPLEN 
          ZDIPLEN 


   SCF energy         :     -588.728324019107959
 -- inactive part     :     -673.876743803560998
 -- nuclear repulsion :       85.148419784453068


                     ***************************************
                     *** RHF response calculation (TDHF) ***
                     ***************************************



 Linear response calculations for quadratic response
 - singlet property operator of symmetry    1  ( A  )


 Perturbation symmetry.     KSYMOP:           1
 Perturbation spin symmetry.TRPLET:           F
 Orbital variables.         KZWOPT:        1344
 Configuration variables.   KZCONF:           0
 Total number of variables. KZVAR :        1344


 QRLRVE -- linear response calculation for symmetry  1  ( A  )
 QRLRVE -- operator label : XDIPLEN 
 QRLRVE -- operator spin  :   0
 QRLRVE -- frequencies :  0.000000  0.006345  0.012689  0.019034  0.025378
                          0.031723  0.038067  0.044412  0.050757



 ---  SOLVING SETS OF LINEAR EQUATIONS FOR LINEAR RESPONSE PROPERTIES ---

 Operator symmetry = 1  ( A  ); triplet =   F

RSPORT:    2 out of    9 new trial vectors linear dependent

 ** RSPCTL MICROITERATION NUMBER    1

       No.  Residual tot.,    conf., and orb.    Bnorm      Frequency 
      ----------------------------------------------------------------
         1    4.10086D+00  0.00D+00  4.10D+00  4.10D+00    0.00000D+00
         2    4.10158D+00  0.00D+00  4.10D+00  4.10D+00    6.34456D-03
         3    4.10372D+00  0.00D+00  4.10D+00  4.10D+00    1.26891D-02
         4    4.10731D+00  0.00D+00  4.11D+00  4.11D+00    1.90337D-02
         5    4.11234D+00  0.00D+00  4.11D+00  4.13D+00    2.53783D-02
         6    4.11885D+00  0.00D+00  4.12D+00  4.14D+00    3.17228D-02
         7    4.12686D+00  0.00D+00  4.13D+00  4.16D+00    3.80674D-02
         8    4.13641D+00  0.00D+00  4.14D+00  4.18D+00    4.44119D-02
         9    4.14753D+00  0.00D+00  4.15D+00  4.21D+00    5.07565D-02

 ** RSPCTL MICROITERATION NUMBER    2

       No.  Residual tot.,    conf., and orb.    Bnorm      Frequency 
      ----------------------------------------------------------------
         1    9.78980D-01  0.00D+00  9.79D-01  5.08D+00    0.00000D+00
         2    9.79324D-01  0.00D+00  9.79D-01  5.08D+00    6.34456D-03
         3    9.80360D-01  0.00D+00  9.80D-01  5.09D+00    1.26891D-02
         4    9.82097D-01  0.00D+00  9.82D-01  5.11D+00    1.90337D-02
         5    9.84549D-01  0.00D+00  9.85D-01  5.13D+00    2.53783D-02
         6    9.87739D-01  0.00D+00  9.88D-01  5.15D+00    3.17228D-02
         7    9.91695D-01  0.00D+00  9.92D-01  5.18D+00    3.80674D-02
         8    9.96456D-01  0.00D+00  9.96D-01  5.22D+00    4.44119D-02
         9    1.00207D+00  0.00D+00  1.00D+00  5.27D+00    5.07565D-02

 ** RSPCTL MICROITERATION NUMBER    3

       No.  Residual tot.,    conf., and orb.    Bnorm      Frequency 
      ----------------------------------------------------------------
         1    1.55943D-01  0.00D+00  1.56D-01  5.20D+00    0.00000D+00
         2    1.56062D-01  0.00D+00  1.56D-01  5.21D+00    6.34456D-03
         3    1.56420D-01  0.00D+00  1.56D-01  5.22D+00    1.26891D-02
         4    1.57021D-01  0.00D+00  1.57D-01  5.23D+00    1.90337D-02
         5    1.57874D-01  0.00D+00  1.58D-01  5.25D+00    2.53783D-02
         6    1.58991D-01  0.00D+00  1.59D-01  5.28D+00    3.17228D-02
         7    1.60386D-01  0.00D+00  1.60D-01  5.32D+00    3.80674D-02
         8    1.62080D-01  0.00D+00  1.62D-01  5.36D+00    4.44119D-02
         9    1.64098D-01  0.00D+00  1.64D-01  5.41D+00    5.07565D-02

 ** RSPCTL MICROITERATION NUMBER    4

       No.  Residual tot.,    conf., and orb.    Bnorm      Frequency 
      ----------------------------------------------------------------
         1    3.10153D-02  0.00D+00  3.10D-02  5.21D+00    0.00000D+00
         2    3.10551D-02  0.00D+00  3.11D-02  5.21D+00    6.34456D-03
         3    3.11750D-02  0.00D+00  3.12D-02  5.22D+00    1.26891D-02
         4    3.13770D-02  0.00D+00  3.14D-02  5.24D+00    1.90337D-02
         5    3.16645D-02  0.00D+00  3.17D-02  5.26D+00    2.53783D-02
         6    3.20424D-02  0.00D+00  3.20D-02  5.29D+00    3.17228D-02
         7    3.25172D-02  0.00D+00  3.25D-02  5.32D+00    3.80674D-02
         8    3.30974D-02  0.00D+00  3.31D-02  5.37D+00    4.44119D-02
         9    3.37939D-02  0.00D+00  3.38D-02  5.42D+00    5.07565D-02

 ** RSPCTL MICROITERATION NUMBER    5

       No.  Residual tot.,    conf., and orb.    Bnorm      Frequency 
      ----------------------------------------------------------------
         1    4.73311D-03  0.00D+00  4.73D-03  5.21D+00    0.00000D+00
         2    4.74287D-03  0.00D+00  4.74D-03  5.21D+00    6.34456D-03
         3    4.77237D-03  0.00D+00  4.77D-03  5.22D+00    1.26891D-02
         4    4.82221D-03  0.00D+00  4.82D-03  5.24D+00    1.90337D-02
         5    4.89347D-03  0.00D+00  4.89D-03  5.26D+00    2.53783D-02
         6    4.98769D-03  0.00D+00  4.99D-03  5.29D+00    3.17228D-02
         7    5.10694D-03  0.00D+00  5.11D-03  5.33D+00    3.80674D-02
         8    5.25389D-03  0.00D+00  5.25D-03  5.37D+00    4.44119D-02
         9    5.43196D-03  0.00D+00  5.43D-03  5.42D+00    5.07565D-02

 ** RSPCTL MICROITERATION NUMBER    6

       No.  Residual tot.,    conf., and orb.    Bnorm      Frequency 
      ----------------------------------------------------------------
         1    7.73315D-04  0.00D+00  7.73D-04  5.21D+00    0.00000D+00
         2    7.69115D-04  0.00D+00  7.69D-04  5.21D+00    6.34456D-03
         3    7.56629D-04  0.00D+00  7.57D-04  5.22D+00    1.26891D-02
         4    7.36257D-04  0.00D+00  7.36D-04  5.24D+00    1.90337D-02
         5    7.08862D-04  0.00D+00  7.09D-04  5.26D+00    2.53783D-02
         6    6.76157D-04  0.00D+00  6.76D-04  5.29D+00    3.17228D-02
         7    6.41390D-04  0.00D+00  6.41D-04  5.33D+00    3.80674D-02
         8    6.10486D-04  0.00D+00  6.10D-04  5.37D+00    4.44119D-02
         9    5.93468D-04  0.00D+00  5.93D-04  5.42D+00    5.07565D-02

 *** THE REQUESTED    9 SOLUTION VECTORS CONVERGED

 Convergence of RSP solution vectors, threshold = 1.00D-03
 ---------------------------------------------------------------
 (dimension of paired reduced space:   88)
 RSP solution vector no.    1; norm of residual   1.48D-04
 RSP solution vector no.    2; norm of residual   1.48D-04
 RSP solution vector no.    3; norm of residual   1.45D-04
 RSP solution vector no.    4; norm of residual   1.41D-04
 RSP solution vector no.    5; norm of residual   1.35D-04
 RSP solution vector no.    6; norm of residual   1.28D-04
 RSP solution vector no.    7; norm of residual   1.20D-04
 RSP solution vector no.    8; norm of residual   1.14D-04
 RSP solution vector no.    9; norm of residual   1.10D-04

 *** RSPCTL MICROITERATIONS CONVERGED

@ QRLRVE: SINGLET SOLUTION FOR SYMMETRY    1  ( A  )    LABEL   XDIPLEN     FREQUENCY   0.000000D+00

@ QRLRVE:  << XDIPLEN  ; XDIPLEN  >> (   0.00000):     31.5488599039    

@ QRLRVE:  << YDIPLEN  ; XDIPLEN  >> (   0.00000):     12.8621070673    

@ QRLRVE:  << ZDIPLEN  ; XDIPLEN  >> (   0.00000):   -1.597194785249E-15

@ QRLRVE: SINGLET SOLUTION FOR SYMMETRY    1  ( A  )    LABEL   XDIPLEN     FREQUENCY   0.634456D-02

@ QRLRVE:  << XDIPLEN  ; XDIPLEN  >> (   0.00634):     31.5558394036    

@ QRLRVE:  << YDIPLEN  ; XDIPLEN  >> (   0.00634):     12.8701136746    

@ QRLRVE:  << ZDIPLEN  ; XDIPLEN  >> (   0.00634):   -1.603044037222E-15

@ QRLRVE: SINGLET SOLUTION FOR SYMMETRY    1  ( A  )    LABEL   XDIPLEN     FREQUENCY   0.126891D-01

@ QRLRVE:  << XDIPLEN  ; XDIPLEN  >> (   0.01269):     31.5768165376    

@ QRLRVE:  << YDIPLEN  ; XDIPLEN  >> (   0.01269):     12.8942028791    

@ QRLRVE:  << ZDIPLEN  ; XDIPLEN  >> (   0.01269):   -1.620816877565E-15

@ QRLRVE: SINGLET SOLUTION FOR SYMMETRY    1  ( A  )    LABEL   XDIPLEN     FREQUENCY   0.190337D-01

@ QRLRVE:  << XDIPLEN  ; XDIPLEN  >> (   0.01903):     31.6119079966    

@ QRLRVE:  << YDIPLEN  ; XDIPLEN  >> (   0.01903):     12.9345845132    

@ QRLRVE:  << ZDIPLEN  ; XDIPLEN  >> (   0.01903):   -1.651199447905E-15

@ QRLRVE: SINGLET SOLUTION FOR SYMMETRY    1  ( A  )    LABEL   XDIPLEN     FREQUENCY   0.253783D-01

@ QRLRVE:  << XDIPLEN  ; XDIPLEN  >> (   0.02538):     31.6613109240    

@ QRLRVE:  << YDIPLEN  ; XDIPLEN  >> (   0.02538):     12.9916139972    

@ QRLRVE:  << ZDIPLEN  ; XDIPLEN  >> (   0.02538):   -1.695372364699E-15

@ QRLRVE: SINGLET SOLUTION FOR SYMMETRY    1  ( A  )    LABEL   XDIPLEN     FREQUENCY   0.317228D-01

@ QRLRVE:  << XDIPLEN  ; XDIPLEN  >> (   0.03172):     31.7253070321    

@ QRLRVE:  << YDIPLEN  ; XDIPLEN  >> (   0.03172):     13.0658011810    

@ QRLRVE:  << ZDIPLEN  ; XDIPLEN  >> (   0.03172):   -1.755068997606E-15

@ QRLRVE: SINGLET SOLUTION FOR SYMMETRY    1  ( A  )    LABEL   XDIPLEN     FREQUENCY   0.380674D-01

@ QRLRVE:  << XDIPLEN  ; XDIPLEN  >> (   0.03807):     31.8042686342    

@ QRLRVE:  << YDIPLEN  ; XDIPLEN  >> (   0.03807):     13.1578233381    

@ QRLRVE:  << ZDIPLEN  ; XDIPLEN  >> (   0.03807):   -1.832662749748E-15

@ QRLRVE: SINGLET SOLUTION FOR SYMMETRY    1  ( A  )    LABEL   XDIPLEN     FREQUENCY   0.444119D-01

@ QRLRVE:  << XDIPLEN  ; XDIPLEN  >> (   0.04441):     31.8986668860    

@ QRLRVE:  << YDIPLEN  ; XDIPLEN  >> (   0.04441):     13.2685429841    

@ QRLRVE:  << ZDIPLEN  ; XDIPLEN  >> (   0.04441):   -1.931289710457E-15

@ QRLRVE: SINGLET SOLUTION FOR SYMMETRY    1  ( A  )    LABEL   XDIPLEN     FREQUENCY   0.507565D-01

@ QRLRVE:  << XDIPLEN  ; XDIPLEN  >> (   0.05076):     32.0090826588    

@ QRLRVE:  << YDIPLEN  ; XDIPLEN  >> (   0.05076):     13.3990314869    

@ QRLRVE:  << ZDIPLEN  ; XDIPLEN  >> (   0.05076):   -2.055015948098E-15


 QRLRVE -- linear response calculation for symmetry  1  ( A  )
 QRLRVE -- operator label : YDIPLEN 
 QRLRVE -- operator spin  :   0
 QRLRVE -- frequencies :  0.000000  0.006345  0.012689  0.019034  0.025378
                          0.031723  0.038067  0.044412  0.050757



 ---  SOLVING SETS OF LINEAR EQUATIONS FOR LINEAR RESPONSE PROPERTIES ---

 Operator symmetry = 1  ( A  ); triplet =   F

RSPORT:    2 out of    9 new trial vectors linear dependent

 ** RSPCTL MICROITERATION NUMBER    1

       No.  Residual tot.,    conf., and orb.    Bnorm      Frequency 
      ----------------------------------------------------------------
         1    4.54893D+00  0.00D+00  4.55D+00  5.61D+00    0.00000D+00
         2    4.55059D+00  0.00D+00  4.55D+00  5.61D+00    6.34456D-03
         3    4.55555D+00  0.00D+00  4.56D+00  5.62D+00    1.26891D-02
         4    4.56386D+00  0.00D+00  4.56D+00  5.64D+00    1.90337D-02
         5    4.57555D+00  0.00D+00  4.58D+00  5.67D+00    2.53783D-02
         6    4.59068D+00  0.00D+00  4.59D+00  5.71D+00    3.17228D-02
         7    4.60934D+00  0.00D+00  4.61D+00  5.75D+00    3.80674D-02
         8    4.63162D+00  0.00D+00  4.63D+00  5.80D+00    4.44119D-02
         9    4.65765D+00  0.00D+00  4.66D+00  5.86D+00    5.07565D-02

 ** RSPCTL MICROITERATION NUMBER    2

       No.  Residual tot.,    conf., and orb.    Bnorm      Frequency 
      ----------------------------------------------------------------
         1    1.21978D+00  0.00D+00  1.22D+00  7.42D+00    0.00000D+00
         2    1.22094D+00  0.00D+00  1.22D+00  7.42D+00    6.34456D-03
         3    1.22442D+00  0.00D+00  1.22D+00  7.44D+00    1.26891D-02
         4    1.23027D+00  0.00D+00  1.23D+00  7.48D+00    1.90337D-02
         5    1.23855D+00  0.00D+00  1.24D+00  7.53D+00    2.53783D-02
         6    1.24935D+00  0.00D+00  1.25D+00  7.59D+00    3.17228D-02
         7    1.26279D+00  0.00D+00  1.26D+00  7.68D+00    3.80674D-02
         8    1.27902D+00  0.00D+00  1.28D+00  7.77D+00    4.44119D-02
         9    1.29824D+00  0.00D+00  1.30D+00  7.89D+00    5.07565D-02

 ** RSPCTL MICROITERATION NUMBER    3

       No.  Residual tot.,    conf., and orb.    Bnorm      Frequency 
      ----------------------------------------------------------------
         1    2.48778D-01  0.00D+00  2.49D-01  7.65D+00    0.00000D+00
         2    2.49164D-01  0.00D+00  2.49D-01  7.66D+00    6.34456D-03
         3    2.50326D-01  0.00D+00  2.50D-01  7.68D+00    1.26891D-02
         4    2.52287D-01  0.00D+00  2.52D-01  7.72D+00    1.90337D-02
         5    2.55079D-01  0.00D+00  2.55D-01  7.78D+00    2.53783D-02
         6    2.58754D-01  0.00D+00  2.59D-01  7.85D+00    3.17228D-02
         7    2.63377D-01  0.00D+00  2.63D-01  7.94D+00    3.80674D-02
         8    2.69034D-01  0.00D+00  2.69D-01  8.05D+00    4.44119D-02
         9    2.75834D-01  0.00D+00  2.76D-01  8.18D+00    5.07565D-02

 ** RSPCTL MICROITERATION NUMBER    4

       No.  Residual tot.,    conf., and orb.    Bnorm      Frequency 
      ----------------------------------------------------------------
         1    4.84722D-02  0.00D+00  4.85D-02  7.66D+00    0.00000D+00
         2    4.85503D-02  0.00D+00  4.86D-02  7.66D+00    6.34456D-03
         3    4.87864D-02  0.00D+00  4.88D-02  7.69D+00    1.26891D-02
         4    4.91857D-02  0.00D+00  4.92D-02  7.73D+00    1.90337D-02
         5    4.97568D-02  0.00D+00  4.98D-02  7.79D+00    2.53783D-02
         6    5.05125D-02  0.00D+00  5.05D-02  7.86D+00    3.17228D-02
         7    5.14698D-02  0.00D+00  5.15D-02  7.95D+00    3.80674D-02
         8    5.26509D-02  0.00D+00  5.27D-02  8.06D+00    4.44119D-02
         9    5.40837D-02  0.00D+00  5.41D-02  8.19D+00    5.07565D-02

 ** RSPCTL MICROITERATION NUMBER    5

       No.  Residual tot.,    conf., and orb.    Bnorm      Frequency 
      ----------------------------------------------------------------
         1    9.00651D-03  0.00D+00  9.01D-03  7.66D+00    0.00000D+00
         2    9.02340D-03  0.00D+00  9.02D-03  7.67D+00    6.34456D-03
         3    9.07442D-03  0.00D+00  9.07D-03  7.69D+00    1.26891D-02
         4    9.16062D-03  0.00D+00  9.16D-03  7.73D+00    1.90337D-02
         5    9.28380D-03  0.00D+00  9.28D-03  7.79D+00    2.53783D-02
         6    9.44656D-03  0.00D+00  9.45D-03  7.86D+00    3.17228D-02
         7    9.65241D-03  0.00D+00  9.65D-03  7.95D+00    3.80674D-02
         8    9.90587D-03  0.00D+00  9.91D-03  8.06D+00    4.44119D-02
         9    1.02127D-02  0.00D+00  1.02D-02  8.19D+00    5.07565D-02

 ** RSPCTL MICROITERATION NUMBER    6

       No.  Residual tot.,    conf., and orb.    Bnorm      Frequency 
      ----------------------------------------------------------------
         1    1.42296D-03  0.00D+00  1.42D-03  7.66D+00    0.00000D+00
         2    1.42599D-03  0.00D+00  1.43D-03  7.67D+00    6.34456D-03
         3    1.43514D-03  0.00D+00  1.44D-03  7.69D+00    1.26891D-02
         4    1.45060D-03  0.00D+00  1.45D-03  7.73D+00    1.90337D-02
         5    1.47269D-03  0.00D+00  1.47D-03  7.79D+00    2.53783D-02
         6    1.50186D-03  0.00D+00  1.50D-03  7.86D+00    3.17228D-02
         7    1.53874D-03  0.00D+00  1.54D-03  7.95D+00    3.80674D-02
         8    1.58414D-03  0.00D+00  1.58D-03  8.06D+00    4.44119D-02
         9    1.63907D-03  0.00D+00  1.64D-03  8.19D+00    5.07565D-02

 *** THE REQUESTED    9 SOLUTION VECTORS CONVERGED

 Convergence of RSP solution vectors, threshold = 1.00D-03
 ---------------------------------------------------------------
 (dimension of paired reduced space:  104)
 RSP solution vector no.    1; norm of residual   1.86D-04
 RSP solution vector no.    2; norm of residual   1.86D-04
 RSP solution vector no.    3; norm of residual   1.87D-04
 RSP solution vector no.    4; norm of residual   1.88D-04
 RSP solution vector no.    5; norm of residual   1.89D-04
 RSP solution vector no.    6; norm of residual   1.91D-04
 RSP solution vector no.    7; norm of residual   1.94D-04
 RSP solution vector no.    8; norm of residual   1.96D-04
 RSP solution vector no.    9; norm of residual   2.00D-04

 *** RSPCTL MICROITERATIONS CONVERGED

@ QRLRVE: SINGLET SOLUTION FOR SYMMETRY    1  ( A  )    LABEL   YDIPLEN     FREQUENCY   0.000000D+00

@ QRLRVE:  << XDIPLEN  ; YDIPLEN  >> (   0.00000):     12.8620375412    

@ QRLRVE:  << YDIPLEN  ; YDIPLEN  >> (   0.00000):     47.5857258992    

@ QRLRVE:  << ZDIPLEN  ; YDIPLEN  >> (   0.00000):    3.259963910048E-15

@ QRLRVE: SINGLET SOLUTION FOR SYMMETRY    1  ( A  )    LABEL   YDIPLEN     FREQUENCY   0.634456D-02

@ QRLRVE:  << XDIPLEN  ; YDIPLEN  >> (   0.00634):     12.8700464368    

@ QRLRVE:  << YDIPLEN  ; YDIPLEN  >> (   0.00634):     47.6063488292    

@ QRLRVE:  << ZDIPLEN  ; YDIPLEN  >> (   0.00634):    3.267090666717E-15

@ QRLRVE: SINGLET SOLUTION FOR SYMMETRY    1  ( A  )    LABEL   YDIPLEN     FREQUENCY   0.126891D-01

@ QRLRVE:  << XDIPLEN  ; YDIPLEN  >> (   0.01269):     12.8941425553    

@ QRLRVE:  << YDIPLEN  ; YDIPLEN  >> (   0.01269):     47.6683878359    

@ QRLRVE:  << ZDIPLEN  ; YDIPLEN  >> (   0.01269):    3.288631960912E-15

@ QRLRVE: SINGLET SOLUTION FOR SYMMETRY    1  ( A  )    LABEL   YDIPLEN     FREQUENCY   0.190337D-01

@ QRLRVE:  << XDIPLEN  ; YDIPLEN  >> (   0.01903):     12.9345358790    

@ QRLRVE:  << YDIPLEN  ; YDIPLEN  >> (   0.01903):     47.7723576870    

@ QRLRVE:  << ZDIPLEN  ; YDIPLEN  >> (   0.01903):    3.325078010932E-15

@ QRLRVE: SINGLET SOLUTION FOR SYMMETRY    1  ( A  )    LABEL   YDIPLEN     FREQUENCY   0.253783D-01

@ QRLRVE:  << XDIPLEN  ; YDIPLEN  >> (   0.02538):     12.9915820830    

@ QRLRVE:  << YDIPLEN  ; YDIPLEN  >> (   0.02538):     47.9191302551    

@ QRLRVE:  << ZDIPLEN  ; YDIPLEN  >> (   0.02538):    3.377270162937E-15

@ QRLRVE: SINGLET SOLUTION FOR SYMMETRY    1  ( A  )    LABEL   YDIPLEN     FREQUENCY   0.317228D-01

@ QRLRVE:  << XDIPLEN  ; YDIPLEN  >> (   0.03172):     13.0657913867    

@ QRLRVE:  << YDIPLEN  ; YDIPLEN  >> (   0.03172):     48.1099561257    

@ QRLRVE:  << ZDIPLEN  ; YDIPLEN  >> (   0.03172):    3.446439152577E-15

@ QRLRVE: SINGLET SOLUTION FOR SYMMETRY    1  ( A  )    LABEL   YDIPLEN     FREQUENCY   0.380674D-01

@ QRLRVE:  << XDIPLEN  ; YDIPLEN  >> (   0.03807):     13.1578415603    

@ QRLRVE:  << YDIPLEN  ; YDIPLEN  >> (   0.03807):     48.3464963483    

@ QRLRVE:  << ZDIPLEN  ; YDIPLEN  >> (   0.03807):    3.534262435775E-15

@ QRLRVE: SINGLET SOLUTION FOR SYMMETRY    1  ( A  )    LABEL   YDIPLEN     FREQUENCY   0.444119D-01

@ QRLRVE:  << XDIPLEN  ; YDIPLEN  >> (   0.04441):     13.2685957618    

@ QRLRVE:  << YDIPLEN  ; YDIPLEN  >> (   0.04441):     48.6308659794    

@ QRLRVE:  << ZDIPLEN  ; YDIPLEN  >> (   0.04441):    3.642944819866E-15

@ QRLRVE: SINGLET SOLUTION FOR SYMMETRY    1  ( A  )    LABEL   YDIPLEN     FREQUENCY   0.507565D-01

@ QRLRVE:  << XDIPLEN  ; YDIPLEN  >> (   0.05076):     13.3991261711    

@ QRLRVE:  << YDIPLEN  ; YDIPLEN  >> (   0.05076):     48.9656917783    

@ QRLRVE:  << ZDIPLEN  ; YDIPLEN  >> (   0.05076):    3.775328577764E-15


 QRLRVE -- linear response calculation for symmetry  1  ( A  )
 QRLRVE -- operator label : ZDIPLEN 
 QRLRVE -- operator spin  :   0
 QRLRVE -- frequencies :  0.000000  0.006345  0.012689  0.019034  0.025378
                          0.031723  0.038067  0.044412  0.050757



 ---  SOLVING SETS OF LINEAR EQUATIONS FOR LINEAR RESPONSE PROPERTIES ---

 Operator symmetry = 1  ( A  ); triplet =   F

RSPORT:    2 out of    9 new trial vectors linear dependent

 ** RSPCTL MICROITERATION NUMBER    1

       No.  Residual tot.,    conf., and orb.    Bnorm      Frequency 
      ----------------------------------------------------------------
         1    1.56612D+00  0.00D+00  1.57D+00  3.65D+00    0.00000D+00
         2    1.56629D+00  0.00D+00  1.57D+00  3.65D+00    6.34456D-03
         3    1.56677D+00  0.00D+00  1.57D+00  3.66D+00    1.26891D-02
         4    1.56758D+00  0.00D+00  1.57D+00  3.66D+00    1.90337D-02
         5    1.56872D+00  0.00D+00  1.57D+00  3.67D+00    2.53783D-02
         6    1.57018D+00  0.00D+00  1.57D+00  3.68D+00    3.17228D-02
         7    1.57198D+00  0.00D+00  1.57D+00  3.69D+00    3.80674D-02
         8    1.57412D+00  0.00D+00  1.57D+00  3.70D+00    4.44119D-02
         9    1.57660D+00  0.00D+00  1.58D+00  3.72D+00    5.07565D-02

 ** RSPCTL MICROITERATION NUMBER    2

       No.  Residual tot.,    conf., and orb.    Bnorm      Frequency 
      ----------------------------------------------------------------
         1    2.84500D-01  0.00D+00  2.85D-01  3.86D+00    0.00000D+00
         2    2.84732D-01  0.00D+00  2.85D-01  3.86D+00    6.34456D-03
         3    2.85433D-01  0.00D+00  2.85D-01  3.87D+00    1.26891D-02
         4    2.86624D-01  0.00D+00  2.87D-01  3.87D+00    1.90337D-02
         5    2.88341D-01  0.00D+00  2.88D-01  3.88D+00    2.53783D-02
         6    2.90638D-01  0.00D+00  2.91D-01  3.90D+00    3.17228D-02
         7    2.93591D-01  0.00D+00  2.94D-01  3.91D+00    3.80674D-02
         8    2.97305D-01  0.00D+00  2.97D-01  3.93D+00    4.44119D-02
         9    3.01923D-01  0.00D+00  3.02D-01  3.95D+00    5.07565D-02

 ** RSPCTL MICROITERATION NUMBER    3

       No.  Residual tot.,    conf., and orb.    Bnorm      Frequency 
      ----------------------------------------------------------------
         1    3.70310D-02  0.00D+00  3.70D-02  3.87D+00    0.00000D+00
         2    3.70972D-02  0.00D+00  3.71D-02  3.88D+00    6.34456D-03
         3    3.73046D-02  0.00D+00  3.73D-02  3.88D+00    1.26891D-02
         4    3.76812D-02  0.00D+00  3.77D-02  3.89D+00    1.90337D-02
         5    3.82790D-02  0.00D+00  3.83D-02  3.90D+00    2.53783D-02
         6    3.91834D-02  0.00D+00  3.92D-02  3.91D+00    3.17228D-02
         7    4.05290D-02  0.00D+00  4.05D-02  3.93D+00    3.80674D-02
         8    4.25257D-02  0.00D+00  4.25D-02  3.96D+00    4.44119D-02
         9    4.55002D-02  0.00D+00  4.55D-02  3.99D+00    5.07565D-02

 ** RSPCTL MICROITERATION NUMBER    4

       No.  Residual tot.,    conf., and orb.    Bnorm      Frequency 
      ----------------------------------------------------------------
         1    5.28670D-03  0.00D+00  5.29D-03  3.87D+00    0.00000D+00
         2    5.33829D-03  0.00D+00  5.34D-03  3.88D+00    6.34456D-03
         3    5.49786D-03  0.00D+00  5.50D-03  3.88D+00    1.26891D-02
         4    5.78010D-03  0.00D+00  5.78D-03  3.89D+00    1.90337D-02
         5    6.21061D-03  0.00D+00  6.21D-03  3.90D+00    2.53783D-02
         6    6.82799D-03  0.00D+00  6.83D-03  3.91D+00    3.17228D-02
         7    7.68783D-03  0.00D+00  7.69D-03  3.93D+00    3.80674D-02
         8    8.87023D-03  0.00D+00  8.87D-03  3.96D+00    4.44119D-02
         9    1.04939D-02  0.00D+00  1.05D-02  3.99D+00    5.07565D-02

 ** RSPCTL MICROITERATION NUMBER    5

       No.  Residual tot.,    conf., and orb.    Bnorm      Frequency 
      ----------------------------------------------------------------
         1    7.31506D-04  0.00D+00  7.32D-04  3.87D+00    0.00000D+00
         2    7.46410D-04  0.00D+00  7.46D-04  3.88D+00    6.34456D-03
         3    7.92009D-04  0.00D+00  7.92D-04  3.88D+00    1.26891D-02
         4    8.71061D-04  0.00D+00  8.71D-04  3.89D+00    1.90337D-02
         5    9.88512D-04  0.00D+00  9.89D-04  3.90D+00    2.53783D-02
         6    1.15213D-03  0.00D+00  1.15D-03  3.91D+00    3.17228D-02
         7    1.37367D-03  0.00D+00  1.37D-03  3.93D+00    3.80674D-02
         8    1.67085D-03  0.00D+00  1.67D-03  3.96D+00    4.44119D-02
         9    2.07097D-03  0.00D+00  2.07D-03  3.99D+00    5.07565D-02

 *** THE REQUESTED    9 SOLUTION VECTORS CONVERGED

 Convergence of RSP solution vectors, threshold = 1.00D-03
 ---------------------------------------------------------------
 (dimension of paired reduced space:   86)
 RSP solution vector no.    1; norm of residual   1.89D-04
 RSP solution vector no.    2; norm of residual   1.93D-04
 RSP solution vector no.    3; norm of residual   2.04D-04
 RSP solution vector no.    4; norm of residual   2.24D-04
 RSP solution vector no.    5; norm of residual   2.53D-04
 RSP solution vector no.    6; norm of residual   2.94D-04
 RSP solution vector no.    7; norm of residual   3.49D-04
 RSP solution vector no.    8; norm of residual   4.22D-04
 RSP solution vector no.    9; norm of residual   5.19D-04

 *** RSPCTL MICROITERATIONS CONVERGED

@ QRLRVE: SINGLET SOLUTION FOR SYMMETRY    1  ( A  )    LABEL   ZDIPLEN     FREQUENCY   0.000000D+00

@ QRLRVE:  << XDIPLEN  ; ZDIPLEN  >> (   0.00000):   -9.717343592997E-15

@ QRLRVE:  << YDIPLEN  ; ZDIPLEN  >> (   0.00000):    6.857018422794E-15

@ QRLRVE:  << ZDIPLEN  ; ZDIPLEN  >> (   0.00000):     21.6239613837    

@ QRLRVE: SINGLET SOLUTION FOR SYMMETRY    1  ( A  )    LABEL   ZDIPLEN     FREQUENCY   0.634456D-02

@ QRLRVE:  << XDIPLEN  ; ZDIPLEN  >> (   0.00634):   -9.532479275916E-15

@ QRLRVE:  << YDIPLEN  ; ZDIPLEN  >> (   0.00634):    6.948671858881E-15

@ QRLRVE:  << ZDIPLEN  ; ZDIPLEN  >> (   0.00634):     21.6268983925    

@ QRLRVE: SINGLET SOLUTION FOR SYMMETRY    1  ( A  )    LABEL   ZDIPLEN     FREQUENCY   0.126891D-01

@ QRLRVE:  << XDIPLEN  ; ZDIPLEN  >> (   0.01269):   -8.967479615042E-15

@ QRLRVE:  << YDIPLEN  ; ZDIPLEN  >> (   0.01269):    7.228662425598E-15

@ QRLRVE:  << ZDIPLEN  ; ZDIPLEN  >> (   0.01269):     21.6357267016    

@ QRLRVE: SINGLET SOLUTION FOR SYMMETRY    1  ( A  )    LABEL   ZDIPLEN     FREQUENCY   0.190337D-01

@ QRLRVE:  << XDIPLEN  ; ZDIPLEN  >> (   0.01903):   -7.989858788620E-15

@ QRLRVE:  << YDIPLEN  ; ZDIPLEN  >> (   0.01903):    7.712690228522E-15

@ QRLRVE:  << ZDIPLEN  ; ZDIPLEN  >> (   0.01903):     21.6504994586    

@ QRLRVE: SINGLET SOLUTION FOR SYMMETRY    1  ( A  )    LABEL   ZDIPLEN     FREQUENCY   0.253783D-01

@ QRLRVE:  << XDIPLEN  ; ZDIPLEN  >> (   0.02538):   -6.540962272639E-15

@ QRLRVE:  << YDIPLEN  ; ZDIPLEN  >> (   0.02538):    8.429093638410E-15

@ QRLRVE:  << ZDIPLEN  ; ZDIPLEN  >> (   0.02538):     21.6713098647    

@ QRLRVE: SINGLET SOLUTION FOR SYMMETRY    1  ( A  )    LABEL   ZDIPLEN     FREQUENCY   0.317228D-01

@ QRLRVE:  << XDIPLEN  ; ZDIPLEN  >> (   0.03172):   -4.528062846473E-15

@ QRLRVE:  << YDIPLEN  ; ZDIPLEN  >> (   0.03172):    9.422652256300E-15

@ QRLRVE:  << ZDIPLEN  ; ZDIPLEN  >> (   0.03172):     21.6982992270    

@ QRLRVE: SINGLET SOLUTION FOR SYMMETRY    1  ( A  )    LABEL   ZDIPLEN     FREQUENCY   0.380674D-01

@ QRLRVE:  << XDIPLEN  ; ZDIPLEN  >> (   0.03807):   -1.810547564264E-15

@ QRLRVE:  << YDIPLEN  ; ZDIPLEN  >> (   0.03807):    1.076122966878E-14

@ QRLRVE:  << ZDIPLEN  ; ZDIPLEN  >> (   0.03807):     21.7316709337    

@ QRLRVE: SINGLET SOLUTION FOR SYMMETRY    1  ( A  )    LABEL   ZDIPLEN     FREQUENCY   0.444119D-01

@ QRLRVE:  << XDIPLEN  ; ZDIPLEN  >> (   0.04441):    1.823962552625E-15

@ QRLRVE:  << YDIPLEN  ; ZDIPLEN  >> (   0.04441):    1.254725109158E-14

@ QRLRVE:  << ZDIPLEN  ; ZDIPLEN  >> (   0.04441):     21.7717144402    

@ QRLRVE: SINGLET SOLUTION FOR SYMMETRY    1  ( A  )    LABEL   ZDIPLEN     FREQUENCY   0.507565D-01

@ QRLRVE:  << XDIPLEN  ; ZDIPLEN  >> (   0.05076):    6.701996281190E-15

@ QRLRVE:  << YDIPLEN  ; ZDIPLEN  >> (   0.05076):    1.493806251777E-14

@ QRLRVE:  << ZDIPLEN  ; ZDIPLEN  >> (   0.05076):     21.8188475528    
 
 ======================================================================
 ---  L I N E A R   R E S P O N S E   F U N C T I O N S --- 
 ======================================================================

 The -<<A;B>>(omega_b) functions from vectors generated
 in a *QUADRA calculation of <<A;B,C>>(omega_b,omega_c)

 Note: the accuracy of off-diagonal elements will be linear
 in the convergence threshold THCLR =  1.00D-03


 Perturbation symmetry.     KSYMOP:           1
 Perturbation spin symmetry.TRPLET:           F
 Orbital variables.         KZWOPT:        1344
 Configuration variables.   KZCONF:           0
 Total number of variables. KZVAR :        1344

@ Singlet linear response function in a.u.

@ A operator, symmetry, frequency:   XDIPLEN    1 -0.000000
@ B operator, symmetry, frequency:   XDIPLEN    1  0.000000

@ Value of linear response -<<A;B>>(omega):      31.548859903860

@ Singlet linear response function in a.u.

@ A operator, symmetry, frequency:   YDIPLEN    1 -0.000000
@ B operator, symmetry, frequency:   XDIPLEN    1  0.000000

@ Value of linear response -<<A;B>>(omega):      12.862107067277

@ Singlet linear response function in a.u.

@ A operator, symmetry, frequency:   ZDIPLEN    1 -0.000000
[...]
@ B-freq = 0.019034  C-freq = 0.019034     beta(Y;Z,Y) =     -0.00000000
@ B-freq = 0.019034  C-freq = 0.019034     beta(Z;Z,Y) =     44.11105323
@ B-freq = 0.025378  C-freq = 0.019034     beta(X;Z,Y) =      0.00000000
@ B-freq = 0.025378  C-freq = 0.019034     beta(Y;Z,Y) =     -0.00000000
@ B-freq = 0.025378  C-freq = 0.019034     beta(Z;Z,Y) =     44.20593177
@ B-freq = 0.000000  C-freq = 0.025378     beta(X;X,Y) = beta(X,Y,X)
@ B-freq = 0.000000  C-freq = 0.025378     beta(Y;X,Y) = beta(Y,Y,X)
@ B-freq = 0.000000  C-freq = 0.025378     beta(Z;X,Y) = beta(Z,Y,X)
@ B-freq = 0.006345  C-freq = 0.025378     beta(X;X,Y) = beta(X,Y,X)
@ B-freq = 0.006345  C-freq = 0.025378     beta(Y;X,Y) = beta(Y,Y,X)
@ B-freq = 0.006345  C-freq = 0.025378     beta(Z;X,Y) = beta(Z,Y,X)
@ B-freq = 0.012689  C-freq = 0.025378     beta(X;X,Y) = beta(X,Y,X)
@ B-freq = 0.012689  C-freq = 0.025378     beta(Y;X,Y) = beta(Y,Y,X)
@ B-freq = 0.012689  C-freq = 0.025378     beta(Z;X,Y) = beta(Z,Y,X)
@ B-freq = 0.019034  C-freq = 0.025378     beta(X;X,Y) = beta(X,Y,X)
@ B-freq = 0.019034  C-freq = 0.025378     beta(Y;X,Y) = beta(Y,Y,X)
@ B-freq = 0.019034  C-freq = 0.025378     beta(Z;X,Y) = beta(Z,Y,X)
@ B-freq = 0.025378  C-freq = 0.025378     beta(X;X,Y) = beta(X,Y,X)
@ B-freq = 0.025378  C-freq = 0.025378     beta(Y;X,Y) = beta(Y,Y,X)
@ B-freq = 0.025378  C-freq = 0.025378     beta(Z;X,Y) = beta(Z,Y,X)
@ B-freq = 0.000000  C-freq = 0.025378     beta(X;Y,Y) = beta(X,Y,Y)
@ B-freq = 0.000000  C-freq = 0.025378     beta(Y;Y,Y) = beta(Y,Y,Y)
@ B-freq = 0.000000  C-freq = 0.025378     beta(Z;Y,Y) = beta(Z,Y,Y)
@ B-freq = 0.006345  C-freq = 0.025378     beta(X;Y,Y) = beta(X,Y,Y)
@ B-freq = 0.006345  C-freq = 0.025378     beta(Y;Y,Y) = beta(Y,Y,Y)
@ B-freq = 0.006345  C-freq = 0.025378     beta(Z;Y,Y) = beta(Z,Y,Y)
@ B-freq = 0.012689  C-freq = 0.025378     beta(X;Y,Y) = beta(X,Y,Y)
@ B-freq = 0.012689  C-freq = 0.025378     beta(Y;Y,Y) = beta(Y,Y,Y)
@ B-freq = 0.012689  C-freq = 0.025378     beta(Z;Y,Y) = beta(Z,Y,Y)
@ B-freq = 0.019034  C-freq = 0.025378     beta(X;Y,Y) = beta(X,Y,Y)
@ B-freq = 0.019034  C-freq = 0.025378     beta(Y;Y,Y) = beta(Y,Y,Y)
@ B-freq = 0.019034  C-freq = 0.025378     beta(Z;Y,Y) = beta(Z,Y,Y)
@ B-freq = 0.025378  C-freq = 0.025378     beta(X;Y,Y) =     -3.49429305
@ B-freq = 0.025378  C-freq = 0.025378     beta(Y;Y,Y) =     62.85959240
@ B-freq = 0.025378  C-freq = 0.025378     beta(Z;Y,Y) =     -0.00000000
@ B-freq = 0.000000  C-freq = 0.025378     beta(X;Z,Y) =      0.00000000
@ B-freq = 0.000000  C-freq = 0.025378     beta(Y;Z,Y) =     -0.00000000
@ B-freq = 0.000000  C-freq = 0.025378     beta(Z;Z,Y) =     44.19567696
@ B-freq = 0.006345  C-freq = 0.025378     beta(X;Z,Y) =      0.00000000
@ B-freq = 0.006345  C-freq = 0.025378     beta(Y;Z,Y) =     -0.00000000
@ B-freq = 0.006345  C-freq = 0.025378     beta(Z;Z,Y) =     44.25342435
@ B-freq = 0.012689  C-freq = 0.025378     beta(X;Z,Y) =      0.00000000
@ B-freq = 0.012689  C-freq = 0.025378     beta(Y;Z,Y) =     -0.00000000
@ B-freq = 0.012689  C-freq = 0.025378     beta(Z;Z,Y) =     44.32922805
@ B-freq = 0.019034  C-freq = 0.025378     beta(X;Z,Y) =      0.00000000
@ B-freq = 0.019034  C-freq = 0.025378     beta(Y;Z,Y) =     -0.00000000
@ B-freq = 0.019034  C-freq = 0.025378     beta(Z;Z,Y) =     44.41675775
@ B-freq = 0.025378  C-freq = 0.025378     beta(X;Z,Y) =      0.00000000
@ B-freq = 0.025378  C-freq = 0.025378     beta(Y;Z,Y) =     -0.00000000
@ B-freq = 0.025378  C-freq = 0.025378     beta(Z;Z,Y) =     44.50550905
@ B-freq = 0.000000  C-freq = 0.000000     beta(X;X,Z) = beta(Z,X,X)
@ B-freq = 0.000000  C-freq = 0.000000     beta(Y;X,Z) = beta(Z,Y,X)
@ B-freq = 0.000000  C-freq = 0.000000     beta(Z;X,Z) = beta(Z,Z,X)
@ B-freq = 0.006345  C-freq = 0.000000     beta(X;X,Z) = beta(X,Z,X)
@ B-freq = 0.006345  C-freq = 0.000000     beta(Y;X,Z) = beta(Y,Z,X)
@ B-freq = 0.006345  C-freq = 0.000000     beta(Z;X,Z) = beta(Z,Z,X)
@ B-freq = 0.012689  C-freq = 0.000000     beta(X;X,Z) = beta(X,Z,X)
@ B-freq = 0.012689  C-freq = 0.000000     beta(Y;X,Z) = beta(Y,Z,X)
@ B-freq = 0.012689  C-freq = 0.000000     beta(Z;X,Z) = beta(Z,Z,X)
@ B-freq = 0.019034  C-freq = 0.000000     beta(X;X,Z) = beta(X,Z,X)
@ B-freq = 0.019034  C-freq = 0.000000     beta(Y;X,Z) = beta(Y,Z,X)
@ B-freq = 0.019034  C-freq = 0.000000     beta(Z;X,Z) = beta(Z,Z,X)
@ B-freq = 0.025378  C-freq = 0.000000     beta(X;X,Z) = beta(X,Z,X)
@ B-freq = 0.025378  C-freq = 0.000000     beta(Y;X,Z) = beta(Y,Z,X)
@ B-freq = 0.025378  C-freq = 0.000000     beta(Z;X,Z) = beta(Z,Z,X)
@ B-freq = 0.000000  C-freq = 0.000000     beta(X;Y,Z) = beta(Z,Y,X)
@ B-freq = 0.000000  C-freq = 0.000000     beta(Y;Y,Z) = beta(Z,Y,Y)
@ B-freq = 0.000000  C-freq = 0.000000     beta(Z;Y,Z) = beta(Z,Z,Y)
@ B-freq = 0.006345  C-freq = 0.000000     beta(X;Y,Z) = beta(X,Z,Y)
@ B-freq = 0.006345  C-freq = 0.000000     beta(Y;Y,Z) = beta(Y,Z,Y)
@ B-freq = 0.006345  C-freq = 0.000000     beta(Z;Y,Z) = beta(Z,Z,Y)
@ B-freq = 0.012689  C-freq = 0.000000     beta(X;Y,Z) = beta(X,Z,Y)
@ B-freq = 0.012689  C-freq = 0.000000     beta(Y;Y,Z) = beta(Y,Z,Y)
@ B-freq = 0.012689  C-freq = 0.000000     beta(Z;Y,Z) = beta(Z,Z,Y)
@ B-freq = 0.019034  C-freq = 0.000000     beta(X;Y,Z) = beta(X,Z,Y)
@ B-freq = 0.019034  C-freq = 0.000000     beta(Y;Y,Z) = beta(Y,Z,Y)
@ B-freq = 0.019034  C-freq = 0.000000     beta(Z;Y,Z) = beta(Z,Z,Y)
@ B-freq = 0.025378  C-freq = 0.000000     beta(X;Y,Z) = beta(X,Z,Y)
@ B-freq = 0.025378  C-freq = 0.000000     beta(Y;Y,Z) = beta(Y,Z,Y)
@ B-freq = 0.025378  C-freq = 0.000000     beta(Z;Y,Z) = beta(Z,Z,Y)
@ B-freq = 0.000000  C-freq = 0.000000     beta(X;Z,Z) = beta(Z,Z,X)
@ B-freq = 0.000000  C-freq = 0.000000     beta(Y;Z,Z) = beta(Z,Z,Y)
@ B-freq = 0.000000  C-freq = 0.000000     beta(X;Z,Z) =     22.83938483
@ B-freq = 0.000000  C-freq = 0.000000     beta(Y;Z,Z) =     43.54055708
@ B-freq = 0.000000  C-freq = 0.000000     beta(Z;Z,Z) =     -0.00000000
@ B-freq = 0.006345  C-freq = 0.000000     beta(X;Z,Z) =     22.85919911
@ B-freq = 0.006345  C-freq = 0.000000     beta(Y;Z,Z) =     43.58123515
@ B-freq = 0.006345  C-freq = 0.000000     beta(Z;Z,Z) =     -0.00000000
@ B-freq = 0.012689  C-freq = 0.000000     beta(X;Z,Z) =     22.91876142
@ B-freq = 0.012689  C-freq = 0.000000     beta(Y;Z,Z) =     43.70349057
@ B-freq = 0.012689  C-freq = 0.000000     beta(Z;Z,Z) =     -0.00000000
@ B-freq = 0.019034  C-freq = 0.000000     beta(X;Z,Z) =     23.01842455
@ B-freq = 0.019034  C-freq = 0.000000     beta(Y;Z,Z) =     43.90796865
@ B-freq = 0.019034  C-freq = 0.000000     beta(Z;Z,Z) =     -0.00000000
@ B-freq = 0.025378  C-freq = 0.000000     beta(X;Z,Z) =     23.15875589
@ B-freq = 0.025378  C-freq = 0.000000     beta(Y;Z,Z) =     44.19567773
@ B-freq = 0.025378  C-freq = 0.000000     beta(Z;Z,Z) =     -0.00000000
@ B-freq = 0.000000  C-freq = 0.006345     beta(X;X,Z) = beta(X,Z,X)
@ B-freq = 0.000000  C-freq = 0.006345     beta(Y;X,Z) = beta(Y,Z,X)
@ B-freq = 0.000000  C-freq = 0.006345     beta(Z;X,Z) = beta(Z,Z,X)
@ B-freq = 0.006345  C-freq = 0.006345     beta(X;X,Z) = beta(X,Z,X)
@ B-freq = 0.006345  C-freq = 0.006345     beta(Y;X,Z) = beta(Y,Z,X)
@ B-freq = 0.006345  C-freq = 0.006345     beta(Z;X,Z) = beta(Z,Z,X)
@ B-freq = 0.012689  C-freq = 0.006345     beta(X;X,Z) = beta(X,Z,X)
@ B-freq = 0.012689  C-freq = 0.006345     beta(Y;X,Z) = beta(Y,Z,X)
@ B-freq = 0.012689  C-freq = 0.006345     beta(Z;X,Z) = beta(Z,Z,X)
@ B-freq = 0.019034  C-freq = 0.006345     beta(X;X,Z) = beta(X,Z,X)
@ B-freq = 0.019034  C-freq = 0.006345     beta(Y;X,Z) = beta(Y,Z,X)
@ B-freq = 0.019034  C-freq = 0.006345     beta(Z;X,Z) = beta(Z,Z,X)
@ B-freq = 0.025378  C-freq = 0.006345     beta(X;X,Z) = beta(X,Z,X)
@ B-freq = 0.025378  C-freq = 0.006345     beta(Y;X,Z) = beta(Y,Z,X)
@ B-freq = 0.025378  C-freq = 0.006345     beta(Z;X,Z) = beta(Z,Z,X)
@ B-freq = 0.000000  C-freq = 0.006345     beta(X;Y,Z) = beta(X,Z,Y)
@ B-freq = 0.000000  C-freq = 0.006345     beta(Y;Y,Z) = beta(Y,Z,Y)
@ B-freq = 0.000000  C-freq = 0.006345     beta(Z;Y,Z) = beta(Z,Z,Y)
@ B-freq = 0.006345  C-freq = 0.006345     beta(X;Y,Z) = beta(X,Z,Y)
@ B-freq = 0.006345  C-freq = 0.006345     beta(Y;Y,Z) = beta(Y,Z,Y)
@ B-freq = 0.006345  C-freq = 0.006345     beta(Z;Y,Z) = beta(Z,Z,Y)
@ B-freq = 0.012689  C-freq = 0.006345     beta(X;Y,Z) = beta(X,Z,Y)
@ B-freq = 0.012689  C-freq = 0.006345     beta(Y;Y,Z) = beta(Y,Z,Y)
@ B-freq = 0.012689  C-freq = 0.006345     beta(Z;Y,Z) = beta(Z,Z,Y)
@ B-freq = 0.019034  C-freq = 0.006345     beta(X;Y,Z) = beta(X,Z,Y)
@ B-freq = 0.019034  C-freq = 0.006345     beta(Y;Y,Z) = beta(Y,Z,Y)
@ B-freq = 0.019034  C-freq = 0.006345     beta(Z;Y,Z) = beta(Z,Z,Y)
@ B-freq = 0.025378  C-freq = 0.006345     beta(X;Y,Z) = beta(X,Z,Y)
@ B-freq = 0.025378  C-freq = 0.006345     beta(Y;Y,Z) = beta(Y,Z,Y)
@ B-freq = 0.025378  C-freq = 0.006345     beta(Z;Y,Z) = beta(Z,Z,Y)
@ B-freq = 0.000000  C-freq = 0.006345     beta(X;Z,Z) = beta(X,Z,Z)
@ B-freq = 0.000000  C-freq = 0.006345     beta(Y;Z,Z) = beta(Y,Z,Z)
@ B-freq = 0.000000  C-freq = 0.006345     beta(Z;Z,Z) = beta(Z,Z,Z)
@ B-freq = 0.006345  C-freq = 0.006345     beta(X;Z,Z) =     22.91133351
@ B-freq = 0.006345  C-freq = 0.006345     beta(Y;Z,Z) =     43.69093254
@ B-freq = 0.006345  C-freq = 0.006345     beta(Z;Z,Z) =     -0.00000000
@ B-freq = 0.012689  C-freq = 0.006345     beta(X;Z,Z) =     23.00369187
@ B-freq = 0.012689  C-freq = 0.006345     beta(Y;Z,Z) =     43.88328868
@ B-freq = 0.012689  C-freq = 0.006345     beta(Z;Z,Z) =     -0.00000000
@ B-freq = 0.019034  C-freq = 0.006345     beta(X;Z,Z) =     23.13696935
@ B-freq = 0.019034  C-freq = 0.006345     beta(Y;Z,Z) =     44.15972227
@ B-freq = 0.019034  C-freq = 0.006345     beta(Z;Z,Z) =     -0.00000000
@ B-freq = 0.025378  C-freq = 0.006345     beta(X;Z,Z) =     23.31209674
@ B-freq = 0.025378  C-freq = 0.006345     beta(Y;Z,Z) =     44.52206140
@ B-freq = 0.025378  C-freq = 0.006345     beta(Z;Z,Z) =     -0.00000000
@ B-freq = 0.000000  C-freq = 0.012689     beta(X;X,Z) = beta(X,Z,X)
@ B-freq = 0.000000  C-freq = 0.012689     beta(Y;X,Z) = beta(Y,Z,X)
@ B-freq = 0.000000  C-freq = 0.012689     beta(Z;X,Z) = beta(Z,Z,X)
@ B-freq = 0.006345  C-freq = 0.012689     beta(X;X,Z) = beta(X,Z,X)
@ B-freq = 0.006345  C-freq = 0.012689     beta(Y;X,Z) = beta(Y,Z,X)
@ B-freq = 0.006345  C-freq = 0.012689     beta(Z;X,Z) = beta(Z,Z,X)
@ B-freq = 0.012689  C-freq = 0.012689     beta(X;X,Z) = beta(X,Z,X)
@ B-freq = 0.012689  C-freq = 0.012689     beta(Y;X,Z) = beta(Y,Z,X)
@ B-freq = 0.012689  C-freq = 0.012689     beta(Z;X,Z) = beta(Z,Z,X)
@ B-freq = 0.019034  C-freq = 0.012689     beta(X;X,Z) = beta(X,Z,X)
@ B-freq = 0.019034  C-freq = 0.012689     beta(Y;X,Z) = beta(Y,Z,X)
@ B-freq = 0.019034  C-freq = 0.012689     beta(Z;X,Z) = beta(Z,Z,X)
@ B-freq = 0.025378  C-freq = 0.012689     beta(X;X,Z) = beta(X,Z,X)
@ B-freq = 0.025378  C-freq = 0.012689     beta(Y;X,Z) = beta(Y,Z,X)
@ B-freq = 0.025378  C-freq = 0.012689     beta(Z;X,Z) = beta(Z,Z,X)
@ B-freq = 0.000000  C-freq = 0.012689     beta(X;Y,Z) = beta(X,Z,Y)
@ B-freq = 0.000000  C-freq = 0.012689     beta(Y;Y,Z) = beta(Y,Z,Y)
@ B-freq = 0.000000  C-freq = 0.012689     beta(Z;Y,Z) = beta(Z,Z,Y)
@ B-freq = 0.006345  C-freq = 0.012689     beta(X;Y,Z) = beta(X,Z,Y)
@ B-freq = 0.006345  C-freq = 0.012689     beta(Y;Y,Z) = beta(Y,Z,Y)
@ B-freq = 0.006345  C-freq = 0.012689     beta(Z;Y,Z) = beta(Z,Z,Y)
@ B-freq = 0.012689  C-freq = 0.012689     beta(X;Y,Z) = beta(X,Z,Y)
@ B-freq = 0.012689  C-freq = 0.012689     beta(Y;Y,Z) = beta(Y,Z,Y)
@ B-freq = 0.012689  C-freq = 0.012689     beta(Z;Y,Z) = beta(Z,Z,Y)
@ B-freq = 0.019034  C-freq = 0.012689     beta(X;Y,Z) = beta(X,Z,Y)
@ B-freq = 0.019034  C-freq = 0.012689     beta(Y;Y,Z) = beta(Y,Z,Y)
@ B-freq = 0.019034  C-freq = 0.012689     beta(Z;Y,Z) = beta(Z,Z,Y)
@ B-freq = 0.025378  C-freq = 0.012689     beta(X;Y,Z) = beta(X,Z,Y)
@ B-freq = 0.025378  C-freq = 0.012689     beta(Y;Y,Z) = beta(Y,Z,Y)
@ B-freq = 0.025378  C-freq = 0.012689     beta(Z;Y,Z) = beta(Z,Z,Y)
@ B-freq = 0.000000  C-freq = 0.012689     beta(X;Z,Z) = beta(X,Z,Z)
@ B-freq = 0.000000  C-freq = 0.012689     beta(Y;Z,Z) = beta(Y,Z,Z)
@ B-freq = 0.000000  C-freq = 0.012689     beta(Z;Z,Z) = beta(Z,Z,Z)
@ B-freq = 0.006345  C-freq = 0.012689     beta(X;Z,Z) = beta(X,Z,Z)
@ B-freq = 0.006345  C-freq = 0.012689     beta(Y;Z,Z) = beta(Y,Z,Z)
@ B-freq = 0.006345  C-freq = 0.012689     beta(Z;Z,Z) = beta(Z,Z,Z)
@ B-freq = 0.012689  C-freq = 0.012689     beta(X;Z,Z) =     23.12962790
@ B-freq = 0.012689  C-freq = 0.012689     beta(Y;Z,Z) =     44.14753152
@ B-freq = 0.012689  C-freq = 0.012689     beta(Z;Z,Z) =     -0.00000000
@ B-freq = 0.019034  C-freq = 0.012689     beta(X;Z,Z) =     23.29762564
@ B-freq = 0.019034  C-freq = 0.012689     beta(Y;Z,Z) =     44.49845590
@ B-freq = 0.019034  C-freq = 0.012689     beta(Z;Z,Z) =     -0.00000000
@ B-freq = 0.025378  C-freq = 0.012689     beta(X;Z,Z) =     23.50900620
@ B-freq = 0.025378  C-freq = 0.012689     beta(Y;Z,Z) =     44.93877411
@ B-freq = 0.025378  C-freq = 0.012689     beta(Z;Z,Z) =     -0.00000000
@ B-freq = 0.000000  C-freq = 0.019034     beta(X;X,Z) = beta(X,Z,X)
@ B-freq = 0.000000  C-freq = 0.019034     beta(Y;X,Z) = beta(Y,Z,X)
@ B-freq = 0.000000  C-freq = 0.019034     beta(Z;X,Z) = beta(Z,Z,X)
@ B-freq = 0.006345  C-freq = 0.019034     beta(X;X,Z) = beta(X,Z,X)
@ B-freq = 0.006345  C-freq = 0.019034     beta(Y;X,Z) = beta(Y,Z,X)
@ B-freq = 0.006345  C-freq = 0.019034     beta(Z;X,Z) = beta(Z,Z,X)
@ B-freq = 0.012689  C-freq = 0.019034     beta(X;X,Z) = beta(X,Z,X)
@ B-freq = 0.012689  C-freq = 0.019034     beta(Y;X,Z) = beta(Y,Z,X)
@ B-freq = 0.012689  C-freq = 0.019034     beta(Z;X,Z) = beta(Z,Z,X)
@ B-freq = 0.019034  C-freq = 0.019034     beta(X;X,Z) = beta(X,Z,X)
@ B-freq = 0.019034  C-freq = 0.019034     beta(Y;X,Z) = beta(Y,Z,X)
@ B-freq = 0.019034  C-freq = 0.019034     beta(Z;X,Z) = beta(Z,Z,X)
@ B-freq = 0.025378  C-freq = 0.019034     beta(X;X,Z) = beta(X,Z,X)
@ B-freq = 0.025378  C-freq = 0.019034     beta(Y;X,Z) = beta(Y,Z,X)
@ B-freq = 0.025378  C-freq = 0.019034     beta(Z;X,Z) = beta(Z,Z,X)
@ B-freq = 0.000000  C-freq = 0.019034     beta(X;Y,Z) = beta(X,Z,Y)
@ B-freq = 0.000000  C-freq = 0.019034     beta(Y;Y,Z) = beta(Y,Z,Y)
@ B-freq = 0.000000  C-freq = 0.019034     beta(Z;Y,Z) = beta(Z,Z,Y)
@ B-freq = 0.006345  C-freq = 0.019034     beta(X;Y,Z) = beta(X,Z,Y)
@ B-freq = 0.006345  C-freq = 0.019034     beta(Y;Y,Z) = beta(Y,Z,Y)
@ B-freq = 0.006345  C-freq = 0.019034     beta(Z;Y,Z) = beta(Z,Z,Y)
@ B-freq = 0.012689  C-freq = 0.019034     beta(X;Y,Z) = beta(X,Z,Y)
@ B-freq = 0.012689  C-freq = 0.019034     beta(Y;Y,Z) = beta(Y,Z,Y)
@ B-freq = 0.012689  C-freq = 0.019034     beta(Z;Y,Z) = beta(Z,Z,Y)
@ B-freq = 0.019034  C-freq = 0.019034     beta(X;Y,Z) = beta(X,Z,Y)
@ B-freq = 0.019034  C-freq = 0.019034     beta(Y;Y,Z) = beta(Y,Z,Y)
@ B-freq = 0.019034  C-freq = 0.019034     beta(Z;Y,Z) = beta(Z,Z,Y)
@ B-freq = 0.025378  C-freq = 0.019034     beta(X;Y,Z) = beta(X,Z,Y)
@ B-freq = 0.025378  C-freq = 0.019034     beta(Y;Y,Z) = beta(Y,Z,Y)
@ B-freq = 0.025378  C-freq = 0.019034     beta(Z;Y,Z) = beta(Z,Z,Y)
@ B-freq = 0.000000  C-freq = 0.019034     beta(X;Z,Z) = beta(X,Z,Z)
@ B-freq = 0.000000  C-freq = 0.019034     beta(Y;Z,Z) = beta(Y,Z,Z)
@ B-freq = 0.000000  C-freq = 0.019034     beta(Z;Z,Z) = beta(Z,Z,Z)
@ B-freq = 0.006345  C-freq = 0.019034     beta(X;Z,Z) = beta(X,Z,Z)
@ B-freq = 0.006345  C-freq = 0.019034     beta(Y;Z,Z) = beta(Y,Z,Z)
@ B-freq = 0.006345  C-freq = 0.019034     beta(Z;Z,Z) = beta(Z,Z,Z)
@ B-freq = 0.012689  C-freq = 0.019034     beta(X;Z,Z) = beta(X,Z,Z)
@ B-freq = 0.012689  C-freq = 0.019034     beta(Y;Z,Z) = beta(Y,Z,Z)
@ B-freq = 0.012689  C-freq = 0.019034     beta(Z;Z,Z) = beta(Z,Z,Z)
@ B-freq = 0.019034  C-freq = 0.019034     beta(X;Z,Z) =     23.50183851
@ B-freq = 0.019034  C-freq = 0.019034     beta(Y;Z,Z) =     44.92729180
@ B-freq = 0.019034  C-freq = 0.019034     beta(Z;Z,Z) =     -0.00000000
@ B-freq = 0.025378  C-freq = 0.019034     beta(X;Z,Z) =     23.75135709
@ B-freq = 0.025378  C-freq = 0.019034     beta(Y;Z,Z) =     45.44991726
@ B-freq = 0.025378  C-freq = 0.019034     beta(Z;Z,Z) =     -0.00000000
@ B-freq = 0.000000  C-freq = 0.025378     beta(X;X,Z) = beta(X,Z,X)
@ B-freq = 0.000000  C-freq = 0.025378     beta(Y;X,Z) = beta(Y,Z,X)
@ B-freq = 0.000000  C-freq = 0.025378     beta(Z;X,Z) = beta(Z,Z,X)
@ B-freq = 0.006345  C-freq = 0.025378     beta(X;X,Z) = beta(X,Z,X)
@ B-freq = 0.006345  C-freq = 0.025378     beta(Y;X,Z) = beta(Y,Z,X)
@ B-freq = 0.006345  C-freq = 0.025378     beta(Z;X,Z) = beta(Z,Z,X)
@ B-freq = 0.012689  C-freq = 0.025378     beta(X;X,Z) = beta(X,Z,X)
@ B-freq = 0.012689  C-freq = 0.025378     beta(Y;X,Z) = beta(Y,Z,X)
@ B-freq = 0.012689  C-freq = 0.025378     beta(Z;X,Z) = beta(Z,Z,X)
@ B-freq = 0.019034  C-freq = 0.025378     beta(X;X,Z) = beta(X,Z,X)
@ B-freq = 0.019034  C-freq = 0.025378     beta(Y;X,Z) = beta(Y,Z,X)
@ B-freq = 0.019034  C-freq = 0.025378     beta(Z;X,Z) = beta(Z,Z,X)
@ B-freq = 0.025378  C-freq = 0.025378     beta(X;X,Z) = beta(X,Z,X)
@ B-freq = 0.025378  C-freq = 0.025378     beta(Y;X,Z) = beta(Y,Z,X)
@ B-freq = 0.025378  C-freq = 0.025378     beta(Z;X,Z) = beta(Z,Z,X)
@ B-freq = 0.000000  C-freq = 0.025378     beta(X;Y,Z) = beta(X,Z,Y)
@ B-freq = 0.000000  C-freq = 0.025378     beta(Y;Y,Z) = beta(Y,Z,Y)
@ B-freq = 0.000000  C-freq = 0.025378     beta(Z;Y,Z) = beta(Z,Z,Y)
@ B-freq = 0.006345  C-freq = 0.025378     beta(X;Y,Z) = beta(X,Z,Y)
@ B-freq = 0.006345  C-freq = 0.025378     beta(Y;Y,Z) = beta(Y,Z,Y)
@ B-freq = 0.006345  C-freq = 0.025378     beta(Z;Y,Z) = beta(Z,Z,Y)
@ B-freq = 0.012689  C-freq = 0.025378     beta(X;Y,Z) = beta(X,Z,Y)
@ B-freq = 0.012689  C-freq = 0.025378     beta(Y;Y,Z) = beta(Y,Z,Y)
@ B-freq = 0.012689  C-freq = 0.025378     beta(Z;Y,Z) = beta(Z,Z,Y)
@ B-freq = 0.019034  C-freq = 0.025378     beta(X;Y,Z) = beta(X,Z,Y)
@ B-freq = 0.019034  C-freq = 0.025378     beta(Y;Y,Z) = beta(Y,Z,Y)
@ B-freq = 0.019034  C-freq = 0.025378     beta(Z;Y,Z) = beta(Z,Z,Y)
@ B-freq = 0.025378  C-freq = 0.025378     beta(X;Y,Z) = beta(X,Z,Y)
@ B-freq = 0.025378  C-freq = 0.025378     beta(Y;Y,Z) = beta(Y,Z,Y)
@ B-freq = 0.025378  C-freq = 0.025378     beta(Z;Y,Z) = beta(Z,Z,Y)
@ B-freq = 0.000000  C-freq = 0.025378     beta(X;Z,Z) = beta(X,Z,Z)
@ B-freq = 0.000000  C-freq = 0.025378     beta(Y;Z,Z) = beta(Y,Z,Z)
@ B-freq = 0.000000  C-freq = 0.025378     beta(Z;Z,Z) = beta(Z,Z,Z)
@ B-freq = 0.006345  C-freq = 0.025378     beta(X;Z,Z) = beta(X,Z,Z)
@ B-freq = 0.006345  C-freq = 0.025378     beta(Y;Z,Z) = beta(Y,Z,Z)
@ B-freq = 0.006345  C-freq = 0.025378     beta(Z;Z,Z) = beta(Z,Z,Z)
@ B-freq = 0.012689  C-freq = 0.025378     beta(X;Z,Z) = beta(X,Z,Z)
@ B-freq = 0.012689  C-freq = 0.025378     beta(Y;Z,Z) = beta(Y,Z,Z)
@ B-freq = 0.012689  C-freq = 0.025378     beta(Z;Z,Z) = beta(Z,Z,Z)
@ B-freq = 0.019034  C-freq = 0.025378     beta(X;Z,Z) = beta(X,Z,Z)
@ B-freq = 0.019034  C-freq = 0.025378     beta(Y;Z,Z) = beta(Y,Z,Z)
@ B-freq = 0.019034  C-freq = 0.025378     beta(Z;Z,Z) = beta(Z,Z,Z)
@ B-freq = 0.025378  C-freq = 0.025378     beta(X;Z,Z) =     24.04137713
@ B-freq = 0.025378  C-freq = 0.025378     beta(Y;Z,Z) =     46.06027513
@ B-freq = 0.025378  C-freq = 0.025378     beta(Z;Z,Z) =     -0.00000000

  Total CPU  time used in RESPONSE:  1 minute  11 seconds
  Total wall time used in RESPONSE:  1 minute  12 seconds


                   .-------------------------------------------.
                   | End of Dynamic Property Section (RESPONS) |
                   `-------------------------------------------'

  Total CPU  time used in DALTON:  1 minute  16 seconds
  Total wall time used in DALTON:  1 minute  17 seconds

 
     Date and time (Linux)  : Wed Sep 13 19:48:53 2023
     Host name              : sn-mem                                  
