

     ************************************************************************
     *************** Dalton - An Electronic Structure Program ***************
     ************************************************************************

    This is output from DALTON release Dalton2020.0 (2020)
         ( Web site: http://daltonprogram.org )

   ----------------------------------------------------------------------------

    NOTE:
     
    Dalton is an experimental code for the evaluation of molecular
    properties using (MC)SCF, DFT, CI, and CC wave functions.
    The authors accept no responsibility for the performance of
    the code or for the correctness of the results.
     
    The code (in whole or part) is provided under a licence and
    is not to be reproduced for further distribution without
    the written permission of the authors or their representatives.
     
    See the home page "http://daltonprogram.org" for further information.
     
    If results obtained with this code are published,
    the appropriate citations would be both of:
     
       K. Aidas, C. Angeli, K. L. Bak, V. Bakken, R. Bast,
       L. Boman, O. Christiansen, R. Cimiraglia, S. Coriani,
       P. Dahle, E. K. Dalskov, U. Ekstroem,
       T. Enevoldsen, J. J. Eriksen, P. Ettenhuber, B. Fernandez,
       L. Ferrighi, H. Fliegl, L. Frediani, K. Hald, A. Halkier,
       C. Haettig, H. Heiberg, T. Helgaker, A. C. Hennum,
       H. Hettema, E. Hjertenaes, S. Hoest, I.-M. Hoeyvik,
       M. F. Iozzi, B. Jansik, H. J. Aa. Jensen, D. Jonsson,
       P. Joergensen, J. Kauczor, S. Kirpekar,
       T. Kjaergaard, W. Klopper, S. Knecht, R. Kobayashi, H. Koch,
       J. Kongsted, A. Krapp, K. Kristensen, A. Ligabue,
       O. B. Lutnaes, J. I. Melo, K. V. Mikkelsen, R. H. Myhre,
       C. Neiss, C. B. Nielsen, P. Norman, J. Olsen,
       J. M. H. Olsen, A. Osted, M. J. Packer, F. Pawlowski,
       T. B. Pedersen, P. F. Provasi, S. Reine, Z. Rinkevicius,
       T. A. Ruden, K. Ruud, V. Rybkin, P. Salek, C. C. M. Samson,
       A. Sanchez de Meras, T. Saue, S. P. A. Sauer,
       B. Schimmelpfennig, K. Sneskov, A. H. Steindal,
       K. O. Sylvester-Hvid, P. R. Taylor, A. M. Teale,
       E. I. Tellgren, D. P. Tew, A. J. Thorvaldsen, L. Thoegersen,
       O. Vahtras, M. A. Watson, D. J. D. Wilson, M. Ziolkowski
       and H. Agren,
       "The Dalton quantum chemistry program system",
       WIREs Comput. Mol. Sci. 2014, 4:269–284 (doi: 10.1002/wcms.1172)
     
    and
     
       Dalton, a molecular electronic structure program,
       Release Dalton2020.0 (2020), see http://daltonprogram.org
   ----------------------------------------------------------------------------

    Authors in alphabetical order (Major contribution(s) in parenthesis):

  Kestutis Aidas,           Vilnius University,           Lithuania   (QM/MM)
  Celestino Angeli,         University of Ferrara,        Italy       (NEVPT2)
  Keld L. Bak,              UNI-C,                        Denmark     (AOSOPPA, non-adiabatic coupling, magnetic properties)
  Vebjoern Bakken,          University of Oslo,           Norway      (DALTON; geometry optimizer, symmetry detection)
  Radovan Bast,             UiT The Arctic U. of Norway,  Norway      (DALTON installation and execution frameworks)
  Pablo Baudin,             University of Valencia,       Spain       (Cholesky excitation energies)
  Linus Boman,              NTNU,                         Norway      (Cholesky decomposition and subsystems)
  Bruno N. Cabral Tenorio,  Technical Univ. of Denmark,   Denmark     (Lanczos-based CC methods)
  Ove Christiansen,         Aarhus University,            Denmark     (CC module)
  Renzo Cimiraglia,         University of Ferrara,        Italy       (NEVPT2)
  Sonia Coriani,            Technical Univ. of Denmark,   Denmark     (CC and RESPONS modules)
  Janusz Cukras,            University of Warsaw,         Poland      (MChD in RESPONS)
  Paal Dahle,               University of Oslo,           Norway      (Parallelization)
  Erik K. Dalskov,          UNI-C,                        Denmark     (SOPPA)
  Thomas Enevoldsen,        Univ. of Southern Denmark,    Denmark     (SOPPA)
  Janus J. Eriksen,         Aarhus University,            Denmark     (Polarizable embedding, TDA)
  Rasmus Faber,             Technical Univ. of Denmark,   Denmark     (Vib.avg. NMR w. SOPPA, parallel AO-SOPPA, CVS-CC and EOMCC)
  Tobias Fahleson,          KTH Stockholm,                Sweden      (Damped cubic response)
  Berta Fernandez,          U. of Santiago de Compostela, Spain       (Doublet spin, ESR in RESPONS)
  Lara Ferrighi,            Aarhus University,            Denmark     (PCM Cubic response)
  Heike Fliegl,             University of Oslo,           Norway      (CCSD(R12))
  Luca Frediani,            UiT The Arctic U. of Norway,  Norway      (PCM)
  Emmanuel Fromager,        Univ. Strasbourg,             France      (MC-srDFT)
  Bin Gao,                  UiT The Arctic U. of Norway,  Norway      (Gen1Int library)
  Andre S. P. Gomes,        CNRS/Universite de Lille,     France      (Frozen density embedding)
  Christof Haettig,         Ruhr-University Bochum,       Germany     (CC module)
  Kasper Hald,              Aarhus University,            Denmark     (CC module)
  Asger Halkier,            Aarhus University,            Denmark     (CC module)
  Frederik Beyer Hansen,    University of Copenhagen,     Denmark     (Parallel AO-SOPPA)
  Erik D. Hedegaard,        Univ. of Southern Denmark,    Denmark     (Polarizable embedding, QM/MM, and MC-srDFT)
  Hanne Heiberg,            University of Oslo,           Norway      (Geometry analysis, selected one-electron integrals)
  Trygve Helgaker,          University of Oslo,           Norway      (DALTON; ABACUS, ERI, DFT modules, London, and much more)
  Alf Christian Hennum,     University of Oslo,           Norway      (Parity violation)
  Hinne Hettema,            University of Auckland,       New Zealand (Quadratic response in RESPONS; SIRIUS supersymmetry)
  Eirik Hjertenaes,         NTNU,                         Norway      (Cholesky decomposition)
  Pi A. B. Haase,           University of Copenhagen,     Denmark     (Triplet AO-SOPPA)
  Maria Francesca Iozzi,    University of Oslo,           Norway      (RPA)
  Christoph Jacob           TU Braunschweig               Germany     (Frozen density embedding)
  Brano Jansik              Technical Univ. of Ostrava    Czech Rep.  (DFT cubic response)
  Hans Joergen Aa. Jensen,  Univ. of Southern Denmark,    Denmark     (DALTON; SIRIUS, RESPONS, ABACUS, MC-srDFT, and much more)
  Dan Jonsson,              UiT The Arctic U. of Norway,  Norway      (Cubic response in RESPONS module)
  Poul Joergensen,          Aarhus University,            Denmark     (RESPONS, ABACUS, and CC modules)
  Maciej Kaminski,          University of Warsaw,         Poland      (CPPh in RESPONS)
  Joanna Kauczor,           Linkoeping University,        Sweden      (Complex polarization propagator (CPP) module)
  Sheela Kirpekar,          Univ. of Southern Denmark,    Denmark     (Mass-velocity & Darwin integrals)
  Erik Kjellgren,           Univ. of Southern Denmark,    Denmark     (MC-srDFT)
  Wim Klopper,              KIT Karlsruhe,                Germany     (R12 code in CC, SIRIUS, and ABACUS modules)
  Stefan Knecht,            ETH Zurich,                   Switzerland (Parallel CI and MCSCF, MC-srDFT)
  Rika Kobayashi,           Australian National Univ.,    Australia   (DIIS in CC, London in MCSCF)
  Henrik Koch,              NTNU,                         Norway      (CC module, Cholesky decomposition)
  Jacob Kongsted,           Univ. of Southern Denmark,    Denmark     (Polarizable embedding, polarizable density embedding, QM/MM)
  Andrea Ligabue,           University of Modena,         Italy       (CTOCD, AOSOPPA)
  Nanna H. List             Univ. of Southern Denmark,    Denmark     (Polarizable embedding)
  Ola B. Lutnaes,           University of Oslo,           Norway      (DFT Hessian)
  Juan I. Melo,             University of Buenos Aires,   Argentina   (LRESC, Relativistic Effects on NMR Shieldings)
  Kurt V. Mikkelsen,        University of Copenhagen,     Denmark     (MC-SCRF and QM/MM)
  Rolf H. Myhre,            NTNU,                         Norway      (Subsystems and CC3)
  Christian Neiss,          Univ. Erlangen-Nuernberg,     Germany     (CCSD(R12))
  Christian B. Nielsen,     University of Copenhagen,     Denmark     (QM/MM)
  Patrick Norman,           KTH Stockholm,                Sweden      (Cubic response and complex frequency response in RESPONS)
  Jeppe Olsen,              Aarhus University,            Denmark     (SIRIUS CI/density modules)
  Jogvan Magnus H. Olsen,   Aarhus University,            Denmark     (Polarizable embedding and polarizable density embedding)
  Anders Osted,             Copenhagen University,        Denmark     (QM/MM)
  Martin J. Packer,         University of Sheffield,      UK          (SOPPA)
  Filip Pawlowski,          Kazimierz Wielki University,  Poland      (CC3)
  Morten N. Pedersen,       Univ. of Southern Denmark,    Denmark     (Polarizable embedding)
  Thomas B. Pedersen,       University of Oslo,           Norway      (Cholesky decomposition)
  Patricio F. Provasi,      University of Northeastern,   Argentina   (Analysis of coupling constants in localized orbitals)
  Peter Reinholdt,          Univ. of Southern Denmark,    Denmark     (Polarizable embedding and polarizable density embedding)
  Zilvinas Rinkevicius,     KTH Stockholm,                Sweden      (open-shell DFT, ESR)
  Elias Rudberg,            KTH Stockholm,                Sweden      (DFT grid and basis info)
  Torgeir A. Ruden,         University of Oslo,           Norway      (Numerical derivatives in ABACUS)
  Kenneth Ruud,             UiT The Arctic U. of Norway,  Norway      (DALTON; ABACUS magnetic properties and much more)
  Pawel Salek,              KTH Stockholm,                Sweden      (DALTON; DFT code)
  Claire C. M. Samson       University of Karlsruhe       Germany     (Boys localization, r12 integrals in ERI)
  Alfredo Sanchez de Meras, University of Valencia,       Spain       (CC module, Cholesky decomposition)
  Trond Saue,               Paul Sabatier University,     France      (direct Fock matrix construction)
  Stephan P. A. Sauer,      University of Copenhagen,     Denmark     (SOPPA(CCSD), SOPPA prop., AOSOPPA, vibrational g-factors)
  Bernd Schimmelpfennig,    Forschungszentrum Karlsruhe,  Germany     (AMFI module)
  Anna K. Schnack-Petersen, University of Copenhagen,     Denmark     (RPA(D) and HRPA(D) properties in AOSOPPA)
  Kristian Sneskov,         Aarhus University,            Denmark     (Polarizable embedding, QM/MM)
  Arnfinn H. Steindal,      UiT The Arctic U. of Norway,  Norway      (parallel QM/MM, polarizable embedding)
  Casper Steinmann,         Aalborg University,           Denmark     (QFIT, polarizable embedding)
  K. O. Sylvester-Hvid,     University of Copenhagen,     Denmark     (MC-SCRF)
  Peter R. Taylor,          VLSCI/Univ. of Melbourne,     Australia   (Symmetry handling ABACUS, integral transformation)
  Andrew M. Teale,          University of Nottingham,     England     (DFT-AC, DFT-D)
  David P. Tew,             University of Bristol,        England     (CCSD(R12))
  Julien Toulouse,          Sorbonne Univ.,               France      (MC-srDFT)
  Olav Vahtras,             KTH Stockholm,                Sweden      (Triplet response, spin-orbit, ESR, TDDFT, open-shell DFT)
  Lucas Visscher,           Vrije Universiteit Amsterdam, Netherlands (Frozen density embedding)
  David J. Wilson,          La Trobe University,          Australia   (DFT Hessian and DFT magnetizabilities)
  Hans Agren,               KTH Stockholm,                Sweden      (SIRIUS module, RESPONS, MC-SCRF solvation)
 --------------------------------------------------------------------------------

     Date and time (Linux)  : Sat Jul 27 18:19:58 2024
     Host name              : dn006                                   

 * Work memory size             :    64000000 =  488.28 megabytes.

 * Directories for basis set searches:
   1) /gpfs/projects/rjh/adrian/beta_paper_database/dalton/hf/NOCl/dipole
   2) /gpfs/projects/rjh/adrian/dalton/build/basis


Compilation information
-----------------------

 Who compiled             | ahurtado
 Host                     | sn-mem
 System                   | Linux-3.10.0-1160.81.1.el7.x86_64
 CMake generator          | Unix Makefiles
 Processor                | x86_64
 64-bit integers          | OFF
 MPI                      | ON
 Fortran compiler         | /gpfs/software/intel/oneAPI/2021_4/mpi/2021.4.0/bi
                          | n/mpiifort
 Fortran compiler version | unknown
 C compiler               | /gpfs/software/intel/oneAPI/2021_4/mpi/2021.4.0/bi
                          | n/mpiicc
 C compiler version       | unknown
 C++ compiler             | /gpfs/software/intel/oneAPI/2021_4/mpi/2021.4.0/bi
                          | n/mpiicpc
 C++ compiler version     | unknown
 Static linking           | OFF
 Last Git revision        | 66052b3af5ea7225e31178bf9a8b031913c72190
 Git branch               | (HEAD detached at Dalton2020.0)
 Configuration time       | 2024-05-30 10:57:17.145493

 * MPI parallel run using 38 processes.


   Content of the .dal input file
 ----------------------------------

**DALTON INPUT
.RUN RESPONSE
.DIRECT
**WAVE FUNCTIONS
.HF
**PROPERTIES
**RESPONSE
*QUADRA
.DIPLEN
.FREQUENCIES
5
0.0 0.0063445625 0.012689125 0.0190336875 0.02537825
**END OF DALTON INPUT


   Content of the .mol file
 ----------------------------

BASIS
q-aug-cc-pVTZ
blah
blah
Atomtype=3 Angstrom Charge=0 Nosymmmetry
Charge=17 Atoms=1
Cl_a -0.531200001141 -0.929799999232 0.000000000000
Charge=7 Atoms=1
N_a 0.000000000000 0.972399997674 0.000000000000
Charge=8 Atoms=1
O_a 1.128700001162 1.124999999397 0.000000000000


       *******************************************************************
       *********** Output from DALTON general input processing ***********
       *******************************************************************

 --------------------------------------------------------------------------------
   Overall default print level:    0
   Print level for DALTON.STAT:    1

    Parallel calculation using MPI
    AO-direct calculation (in sections where implemented)
    HERMIT 1- and 2-electron integral sections will be executed
    "Old" integral transformation used (limited to max 255 basis functions)
    Wave function sections will be executed (SIRIUS module)
    Dynamic molecular response properties section will be executed (RESPONSE module)
 --------------------------------------------------------------------------------


   ****************************************************************************
   *************** Output of molecule and basis set information ***************
   ****************************************************************************


    The two title cards from your ".mol" input:
    ------------------------------------------------------------------------
 1: blah                                                                    
 2: blah                                                                    
    ------------------------------------------------------------------------

  Coordinates are entered in Angstrom and converted to atomic units.
          - Conversion factor : 1 bohr = 0.52917721 A

  Atomic type no.    1
  --------------------
  Nuclear charge:  17.00000
  Number of symmetry independent centers:    1
  Number of basis sets to read;    2
  Basis set file used for this atomic type with Z =  17 :
     "/gpfs/projects/rjh/adrian/dalton/build/basis/aug-cc-pVTZ"

  Atomic type no.    2
  --------------------
  Nuclear charge:   7.00000
  Number of symmetry independent centers:    1
  Number of basis sets to read;    2
  Basis set file used for this atomic type with Z =   7 :
     "/gpfs/projects/rjh/adrian/dalton/build/basis/aug-cc-pVTZ"

  Atomic type no.    3
  --------------------
  Nuclear charge:   8.00000
  Number of symmetry independent centers:    1
  Number of basis sets to read;    2
  Basis set file used for this atomic type with Z =   8 :
     "/gpfs/projects/rjh/adrian/dalton/build/basis/aug-cc-pVTZ"


                         SYMGRP: Point group information
                         -------------------------------

@    Point group: C1 


                                 Isotopic Masses
                                 ---------------

                           Cl_a       34.968853
                           N_a        14.003074
                           O_a        15.994915

                       Total mass:    64.966842 amu
                       Natural abundance:  75.308 %

 Center-of-mass coordinates (a.u.):   -0.015184   -0.026271    0.000000
 Center-of-mass coordinates (Angs):   -0.008035   -0.013902    0.000000


  Atoms and basis sets
  --------------------

  Number of atom types :    3
  Total number of atoms:    3

  Basis set used is "q-aug-cc-pVTZ" from the basis set library.

  label    atoms   charge   prim   cont     basis
  ----------------------------------------------------------------------
  Cl          1   17.0000   123    98      [19s13p6d5f|9s8p6d5f]                              
  N_          1    7.0000   106    94      [14s9p6d5f|8s7p6d5f]                               
  O_          1    8.0000   106    94      [14s9p6d5f|8s7p6d5f]                               
  ----------------------------------------------------------------------
  total:      3   32.0000   335   286
  ----------------------------------------------------------------------
  Spherical harmonic basis used.

  Threshold for neglecting AO integrals:  1.00D-12


  Cartesian Coordinates (a.u.)
  ----------------------------

  Total number of coordinates:    9
  Cl_a    :     1  x  -1.0038225198    2  y  -1.7570673496    3  z   0.0000000000
  N_a     :     4  x   0.0000000000    5  y   1.8375696795    6  z   0.0000000000
  O_a     :     7  x   2.1329338795    8  y   2.1259418895    9  z   0.0000000000


   Interatomic separations (in Angstrom):
   --------------------------------------

            Cl_a        N_a         O_a   
            ------      ------      ------
 Cl_a  :    0.000000
 N_a   :    1.974978    0.000000
 O_a   :    2.641490    1.138969    0.000000


  Max    interatomic separation is    2.6415 Angstrom (    4.9917 Bohr)
  between atoms    3 and    1, "O_a   " and "Cl_a  ".

  Min YX interatomic separation is    1.1390 Angstrom (    2.1523 Bohr)


  Bond distances (Angstrom):
  --------------------------

                  atom 1     atom 2       distance
                  ------     ------       --------
  bond distance:  N_a        Cl_a         1.974978
  bond distance:  O_a        N_a          1.138969


  Bond angles (degrees):
  ----------------------

                  atom 1     atom 2     atom 3         angle
                  ------     ------     ------         -----
  bond angle:     Cl_a       N_a        O_a          113.302




 Principal moments of inertia (u*A**2) and principal axes
 --------------------------------------------------------

   IA       5.840433          0.544616    0.838686    0.000000
   IB      88.102929          0.838686   -0.544616    0.000000
   IC      93.943362          0.000000    0.000000    1.000000


 Rotational constants
 --------------------

@    The molecule is planar.

               A                   B                   C

          86531.0810           5736.2339           5379.6138 MHz
            2.886366            0.191340            0.179445 cm-1


@  Nuclear repulsion energy :   85.148419784453 Hartree


                     .---------------------------------------.
                     | Starting in Integral Section (HERMIT) |
                     `---------------------------------------'



 ***************************************************************************************
 ****************** Output from **INTEGRALS input processing (HERMIT) ******************
 ***************************************************************************************


 - Using defaults, no **INTEGRALS input found

 Default print level:        1

 Calculation of one-electron Hamiltonian integrals.

 Center of mass  (bohr):     -0.015183530523     -0.026271029737      0.000000000000
 Operator center (bohr):      0.000000000000      0.000000000000      0.000000000000
 Gauge origin    (bohr):      0.000000000000      0.000000000000      0.000000000000
 Dipole origin   (bohr):      0.000000000000      0.000000000000      0.000000000000


     ************************************************************************
     ************************** Output from HERINT **************************
     ************************************************************************



                      Nuclear contribution to dipole moments
                      --------------------------------------

                 au               Debye          C m (/(10**-30)

      x     -0.00151180        -0.00384261        -0.01281757
      y      0.00037793         0.00096060         0.00320422
      z      0.00000000         0.00000000         0.00000000


  Time used in GABGEN     is       0.86 seconds
  Total CPU  time used in HERMIT:   1.14 seconds
  Total wall time used in HERMIT:   1.17 seconds


                        .----------------------------------.
                        | End of Integral Section (HERMIT) |
                        `----------------------------------'



                   .--------------------------------------------.
                   | Starting in Wave Function Section (SIRIUS) |
                   `--------------------------------------------'



@ Primary orbitals are deleted during canonical orthonormalization
@   because of detected numerical linear dependence or too large coefficients.
@ Eigenvalue threshold for num. lin. dep. =  1.00D-06

@   1 MO components are deleted in symmetry    1
 Overlap eigenvalues of the deleted orbitals:
  5.58D-07

 Max MO coeff. of last deleted MO & limit:  8.62D+02  1.00D+03

WARNING: Orbitals have been deleted because of numerical
   linear dependence although not requested in input.

 *** Output from Huckel module :

     Using EWMO model:          T
     Using EHT  model:          F
     Number of Huckel orbitals each symmetry:   24

 EWMO - Energy Weighted Maximum Overlap - is a Huckel type method,
        which normally is better than Extended Huckel Theory.
 Reference: Linderberg and Ohrn, Propagators in Quantum Chemistry (Wiley, 1973)

 Huckel EWMO eigenvalues for symmetry :  1
         -104.883930     -20.685569     -15.673202     -10.608489      -8.072407
           -8.072214      -8.072213      -1.708026      -1.175229      -0.898477
           -0.756044      -0.739435      -0.598849      -0.506247      -0.484719
           -0.442076      -0.370251      -0.309233      -0.187242      -0.055540
           -0.055527      -0.054317      -0.054072      -0.050572

 **********************************************************************
 *SIRIUS* a direct, restricted step, second order MCSCF program       *
 **********************************************************************

 
     Date and time (Linux)  : Sat Jul 27 18:20:00 2024
     Host name              : dn006                                   

 Title lines from ".mol" input file:
     blah                                                                    
     blah                                                                    

 Print level on unit LUPRI =   2 is   0
 Print level on unit LUW4  =   2 is   5

@    Restricted, closed shell Hartree-Fock calculation.

@    Time-dependent Hartree-Fock calculation (random phase approximation).
 Fock matrices are calculated directly and in parallel without use of integrals on disk.

 Initial molecular orbitals are obtained according to
 ".MOSTART EWMO  " input option

     Wave function specification
     ============================
@    Wave function type        --- HF ---
@    Number of closed shell electrons          32
@    Number of electrons in active shells       0
@    Total charge of the molecule               0

@    Spin multiplicity and 2 M_S                1         0
@    Total number of symmetries                 1 (point group: C1 )
@    Reference state symmetry                   1 (irrep name : A  )

     Orbital specifications
     ======================
@    Abelian symmetry species          All |    1
@                                          |  A  
                                       --- |  ---
@    Occupied SCF orbitals              16 |   16
@    Secondary orbitals                269 |  269
@    Total number of orbitals          285 |  285
@    Number of basis functions         286 |  286

     Optimization information
     ========================
@    Number of configurations                 1
@    Number of orbital rotations           4304
     ------------------------------------------
@    Total number of variables             4305

     Maximum number of Fock   iterations      0
     Maximum number of DIIS   iterations     60
     Maximum number of QC-SCF iterations     60
     Threshold for SCF convergence     1.00D-05

    INFORMATION: Switched to "new" integral transformation (from 1988 ;-) )
    because more than 255 basis functions.


 ***********************************************
 ***** DIIS acceleration of SCF iterations *****
 ***********************************************

 C1-DIIS algorithm; max error vectors =    8

 Iter      Total energy        Error norm    Delta(E)  DIIS dim.
 -----------------------------------------------------------------------------
   1  Screening settings (-IFTHRS, JTDIIS, DIFDEN, times)   -8    1    T  2.98D+00  2.99D+00
@  1    -588.364802094        2.72986D+00   -5.88D+02    1
      Virial theorem: -V/T =      2.000629
@    MULPOP   Cl_a   -0.20; N_a     0.52; O_a    -0.33; 
   1  Level shift: doubly occupied orbital energies shifted by -2.00D-01
 -----------------------------------------------------------------------------
   2  Screening settings (-IFTHRS, JTDIIS, DIFDEN, times)   -8    2    T  2.86D+00  2.87D+00
@  2    -588.703303912        1.10762D+00   -3.39D-01    2
      Virial theorem: -V/T =      2.000317
@    MULPOP   Cl_a   -0.31; N_a     0.14; O_a     0.17; 
   2  Level shift: doubly occupied orbital energies shifted by -1.00D-01
 -----------------------------------------------------------------------------
   3  Screening settings (-IFTHRS, JTDIIS, DIFDEN, times)   -8    3    T  2.90D+00  2.91D+00
@  3    -588.760399926        3.75590D-01   -5.71D-02    3
      Virial theorem: -V/T =      2.000276
@    MULPOP   Cl_a   -0.44; N_a     0.49; O_a    -0.05; 
   3  Level shift: doubly occupied orbital energies shifted by -5.00D-02
 -----------------------------------------------------------------------------
   4  Screening settings (-IFTHRS, JTDIIS, DIFDEN, times)  -12    4    F  2.89D+00  2.91D+00
@  4    -588.768570286        1.05119D-01   -8.17D-03    4
      Virial theorem: -V/T =      2.000834
@    MULPOP   Cl_a   -0.48; N_a     0.45; O_a     0.03; 
   4  Level shift: doubly occupied orbital energies shifted by -2.50D-02
 -----------------------------------------------------------------------------
   5  Screening settings (-IFTHRS, JTDIIS, DIFDEN, times)  -12    5    T  2.88D+00  2.89D+00
@  5    -588.769733766        3.76637D-02   -1.16D-03    5
      Virial theorem: -V/T =      2.000642
@    MULPOP   Cl_a   -0.48; N_a     0.46; O_a     0.02; 
   5  Level shift: doubly occupied orbital energies shifted by -1.25D-02
 -----------------------------------------------------------------------------
   6  Screening settings (-IFTHRS, JTDIIS, DIFDEN, times)  -12    6    T  2.89D+00  2.90D+00
@  6    -588.769943019        1.65243D-02   -2.09D-04    6
      Virial theorem: -V/T =      2.000638
@    MULPOP   Cl_a   -0.49; N_a     0.47; O_a     0.02; 
 -----------------------------------------------------------------------------
   7  Screening settings (-IFTHRS, JTDIIS, DIFDEN, times)  -12    7    T  2.89D+00  2.91D+00
@  7    -588.770004477        6.01807D-03   -6.15D-05    7
      Virial theorem: -V/T =      2.000657
@    MULPOP   Cl_a   -0.48; N_a     0.47; O_a     0.02; 
 -----------------------------------------------------------------------------
   8  Screening settings (-IFTHRS, JTDIIS, DIFDEN, times)  -12    8    T  2.89D+00  2.90D+00
@  8    -588.770014537        2.57494D-03   -1.01D-05    8
      Virial theorem: -V/T =      2.000646
@    MULPOP   Cl_a   -0.48; N_a     0.46; O_a     0.02; 
 -----------------------------------------------------------------------------
   9  Screening settings (-IFTHRS, JTDIIS, DIFDEN, times)  -12    9    T  2.86D+00  2.88D+00
@  9    -588.770016388        9.26928D-04   -1.85D-06    8
      Virial theorem: -V/T =      2.000647
@    MULPOP   Cl_a   -0.48; N_a     0.46; O_a     0.02; 
 -----------------------------------------------------------------------------
  10  Screening settings (-IFTHRS, JTDIIS, DIFDEN, times)  -12   10    T  2.88D+00  2.89D+00
@ 10    -588.770016639        3.23207D-04   -2.51D-07    8
      Virial theorem: -V/T =      2.000647
@    MULPOP   Cl_a   -0.48; N_a     0.46; O_a     0.02; 
 -----------------------------------------------------------------------------
  11  Screening settings (-IFTHRS, JTDIIS, DIFDEN, times)  -12   11    T  2.93D+00  2.95D+00
@ 11    -588.770016671        1.18897D-04   -3.23D-08    8
      Virial theorem: -V/T =      2.000647
@    MULPOP   Cl_a   -0.48; N_a     0.46; O_a     0.02; 
 -----------------------------------------------------------------------------
  12  Screening settings (-IFTHRS, JTDIIS, DIFDEN, times)  -12   12    T  2.83D+00  2.85D+00
@ 12    -588.770016675        3.96504D-05   -3.83D-09    8
      Virial theorem: -V/T =      2.000647
@    MULPOP   Cl_a   -0.48; N_a     0.46; O_a     0.02; 
 -----------------------------------------------------------------------------
  13  Screening settings (-IFTHRS, JTDIIS, DIFDEN, times)  -12   13    T  2.86D+00  2.87D+00
@ 13    -588.770016675        2.23977D-05   -1.56D-10    8
      Virial theorem: -V/T =      2.000647
@    MULPOP   Cl_a   -0.48; N_a     0.46; O_a     0.02; 
 -----------------------------------------------------------------------------
  14  Screening settings (-IFTHRS, JTDIIS, DIFDEN, times)  -12   14    T  2.85D+00  2.87D+00
@ 14    -588.770016675        5.47613D-06   -5.48D-11    8

@ *** DIIS converged in  14 iterations !
@     Converged SCF energy, gradient:   -588.770016675291    5.48D-06
    - total time used in SIRFCK :              0.00 seconds


 *** SCF orbital energy analysis ***

 Only the 20 lowest virtual orbital energies printed in each symmetry.

 Number of electrons :   32
 Orbital occupations :   16

 Sym       Hartree-Fock orbital energies

1 A    -104.83646789   -20.75821595   -15.85508894   -10.55948023    -8.02580666
         -8.02407348    -8.02395715    -1.68327920    -1.10545438    -0.96909949
         -0.77226905    -0.76385204    -0.72616234    -0.45881822    -0.45844889
         -0.43119749     0.00107747     0.00174501     0.00185873     0.00197681
          0.00405903     0.00420561     0.00424566     0.00493824     0.00534038
          0.00539230     0.00653380     0.00951571     0.00978901     0.01164472
          0.01295721     0.01431370     0.01439181     0.01486567     0.01523629
          0.01606719

    E(LUMO) :     0.00107747 au (symmetry 1)
  - E(HOMO) :    -0.43119749 au (symmetry 1)
  ------------------------------------------
    gap     :     0.43227495 au

 --- Writing SIRIFC interface file

 CPU and wall time for SCF :      41.556      41.789


                       .-----------------------------------.
                       | --- Final results from SIRIUS --- |
                       `-----------------------------------'


@    Spin multiplicity:           1
@    Spatial symmetry:            1 ( irrep  A   in C1  )
@    Total charge of molecule:    0

@    Final HF energy:            -588.770016675291                 
@    Nuclear repulsion:            85.148419784453
@    Electronic energy:          -673.918436459744

@    Final gradient norm:           0.000005476131

 
     Date and time (Linux)  : Sat Jul 27 18:20:42 2024
     Host name              : dn006                                   

File label for MO orbitals:  27Jul24   FOCKDIIS

 (Only coefficients > 0.0100 are printed.)

 Molecular orbitals for symmetry species 1  (A  )
 ------------------------------------------------

    Orbital         7        8        9       10       11       12       13
   3 Cl_a:1s     0.0007  -0.0280   0.7917   0.4747  -0.1501   0.2726  -0.0000
   5 Cl_a:1s    -0.0016  -0.0238   0.0111   0.0101  -0.0335   0.0471   0.0000
   6 Cl_a:1s     0.0037   0.1073   0.0120  -0.0267   0.0125  -0.0615   0.0000
   7 Cl_a:1s    -0.0072  -0.0818  -0.0304  -0.0365  -0.0436   0.0028   0.0000
   8 Cl_a:1s    -0.0077   0.1193  -0.1084   0.0352   0.0542   0.1041   0.0000
   9 Cl_a:1s    -0.0005   0.0245  -0.0337   0.0081   0.0054   0.0340   0.0000
  10 Cl_a:2px   -0.9661  -0.0013  -0.0006   0.0002  -0.0008   0.0022  -0.0000
  11 Cl_a:2py    0.2557  -0.0016  -0.0007   0.0006  -0.0006   0.0036   0.0000
  13 Cl_a:2px    0.0045  -0.0148   0.0223  -0.0137   0.0996  -0.0265   0.0000
  14 Cl_a:2py   -0.0012  -0.0276   0.0910  -0.0849   0.1093  -0.2449   0.0000
  15 Cl_a:2pz    0.0000   0.0000  -0.0000   0.0000  -0.0000  -0.0000   0.0967
  19 Cl_a:2px   -0.0084   0.0177   0.0035  -0.0047  -0.0153  -0.0197   0.0000
  20 Cl_a:2py   -0.0015  -0.0073  -0.0260   0.0178  -0.0135   0.0614   0.0000
  21 Cl_a:2pz    0.0000   0.0000   0.0000   0.0000  -0.0000  -0.0000  -0.0320
  22 Cl_a:2px   -0.0199  -0.0655  -0.0353  -0.0219   0.0060   0.1154  -0.0000
  23 Cl_a:2py   -0.0038  -0.0187  -0.0738  -0.0107  -0.0047   0.0352   0.0000
  24 Cl_a:2pz    0.0000  -0.0000  -0.0000  -0.0000   0.0000   0.0000   0.0567
  25 Cl_a:2px   -0.0019   0.0004  -0.0040  -0.0379  -0.0110   0.0407   0.0000
  26 Cl_a:2py   -0.0048   0.0478  -0.0609   0.0289   0.0498   0.0559   0.0000
  27 Cl_a:2pz   -0.0000  -0.0000  -0.0000  -0.0000   0.0000   0.0000  -0.0445
  29 Cl_a:2py   -0.0017   0.0024  -0.0112   0.0032   0.0070   0.0172   0.0000
  38 Cl_a:3d2+  -0.0003   0.0014  -0.0063   0.0049  -0.0027   0.0120  -0.0000
  39 Cl_a:3d2-   0.0006  -0.0058   0.0060  -0.0032   0.0112  -0.0038  -0.0000
  43 Cl_a:3d2+   0.0007   0.0048  -0.0107   0.0070  -0.0079   0.0168  -0.0000
  44 Cl_a:3d2-  -0.0034   0.0178   0.0029  -0.0013  -0.0027  -0.0221  -0.0000
  45 Cl_a:3d1-   0.0000  -0.0000  -0.0000  -0.0000   0.0000   0.0000  -0.0203
  48 Cl_a:3d2+  -0.0009   0.0065   0.0097  -0.0043   0.0007  -0.0216  -0.0000
  49 Cl_a:3d2-  -0.0070  -0.0370  -0.0212  -0.0044  -0.0038   0.0489  -0.0000
  50 Cl_a:3d1-   0.0000  -0.0000  -0.0000  -0.0000   0.0000   0.0000   0.0245
  51 Cl_a:3d0    0.0022   0.0183   0.0173   0.0026   0.0028  -0.0187  -0.0000
  53 Cl_a:3d2+  -0.0017   0.0059   0.0138   0.0009   0.0060   0.0092  -0.0000
  54 Cl_a:3d2-  -0.0013   0.0015  -0.0031  -0.0109  -0.0041   0.0103   0.0000
  58 Cl_a:3d2+  -0.0009  -0.0164   0.0069  -0.0030  -0.0151  -0.0053  -0.0000
  78 Cl_a:4f3-  -0.0011   0.0036   0.0032  -0.0015   0.0017  -0.0106   0.0000
  99 N_a :1s     0.0001   0.0108   0.0007  -0.0032  -0.0020  -0.0050  -0.0000
 100 N_a :1s     0.0004  -0.5313   0.3562  -0.6199  -0.1237  -0.3331   0.0000
 102 N_a :1s     0.0028   0.0839   0.0378  -0.0379  -0.0960  -0.1463  -0.0000
 103 N_a :1s     0.0063  -0.0461   0.0944   0.0636  -0.0348  -0.1703   0.0000
 104 N_a :1s    -0.0045  -0.1238   0.0333  -0.0177  -0.0353  -0.0330  -0.0000
 105 N_a :1s    -0.0010  -0.1664   0.0639  -0.0490  -0.0552  -0.0765  -0.0000
 106 N_a :1s    -0.0010  -0.0028  -0.0218   0.0028  -0.0019   0.0134   0.0000
 107 N_a :2px   -0.0000  -0.2999  -0.1498   0.0349   0.2856   0.6376   0.0000
 108 N_a :2py   -0.0000  -0.0310  -0.1379  -0.0833  -0.4493   0.1541  -0.0000
 109 N_a :2pz    0.0000   0.0000   0.0000   0.0000  -0.0000   0.0000   0.5593
 110 N_a :2px    0.0003   0.0272   0.0136  -0.0057  -0.0191  -0.0403  -0.0000
 113 N_a :2px   -0.0003   0.1205   0.0475  -0.0324  -0.0599  -0.0997   0.0000
 114 N_a :2py   -0.0057   0.0304   0.0350   0.0059   0.1186  -0.0602   0.0000
 115 N_a :2pz   -0.0000   0.0000   0.0000   0.0000   0.0000  -0.0000  -0.0834
 116 N_a :2px    0.0222   0.2683   0.0417   0.0360   0.0571  -0.2049   0.0000
 117 N_a :2py    0.0059   0.1535   0.0557  -0.0238   0.0368  -0.0965  -0.0000
 118 N_a :2pz   -0.0000   0.0000   0.0000   0.0000  -0.0000  -0.0000  -0.0256
 119 N_a :2px   -0.0084   0.0547  -0.0405   0.0612   0.0288  -0.0047  -0.0000
 120 N_a :2py    0.0041   0.0403  -0.0270  -0.0274  -0.0304   0.0230   0.0000
 121 N_a :2pz    0.0000  -0.0000  -0.0000   0.0000   0.0000   0.0000   0.1185
 122 N_a :2px   -0.0005   0.0183  -0.0107   0.0063   0.0041   0.0119  -0.0000
 124 N_a :2pz    0.0000  -0.0000  -0.0000  -0.0000   0.0000   0.0000   0.0133
 128 N_a :3d2-  -0.0000  -0.0033  -0.0013  -0.0016  -0.0160   0.0057   0.0000
 131 N_a :3d1+   0.0000  -0.0000  -0.0000  -0.0000   0.0000   0.0000   0.0200
 132 N_a :3d2+  -0.0000  -0.0161  -0.0050  -0.0035   0.0065   0.0150  -0.0000
 133 N_a :3d2-   0.0000  -0.0004   0.0056  -0.0018  -0.0260   0.0009   0.0000
 136 N_a :3d1+  -0.0000   0.0000   0.0000   0.0000  -0.0000  -0.0000   0.0363
 137 N_a :3d2+   0.0002  -0.0155  -0.0153  -0.0045   0.0039   0.0205   0.0000
 138 N_a :3d2-  -0.0027   0.0318   0.0236  -0.0001   0.0595  -0.0541  -0.0000
 139 N_a :3d1-   0.0000   0.0000   0.0000   0.0000  -0.0000  -0.0000  -0.0209
 140 N_a :3d0    0.0003  -0.0189  -0.0084   0.0070  -0.0058   0.0056  -0.0000
 141 N_a :3d1+   0.0000   0.0000   0.0000   0.0000  -0.0000  -0.0000  -0.0381
 142 N_a :3d2+  -0.0019   0.0268   0.0046  -0.0268  -0.0248  -0.0032   0.0000
 143 N_a :3d2-  -0.0076  -0.0023   0.0076  -0.0050   0.0357   0.0249  -0.0000
 144 N_a :3d1-   0.0000  -0.0000  -0.0000  -0.0000   0.0000   0.0000   0.0276
 145 N_a :3d0    0.0016  -0.0202   0.0034  -0.0070  -0.0058   0.0059  -0.0000
 147 N_a :3d2+   0.0039   0.1009   0.0279  -0.0063   0.0038  -0.0648  -0.0000
 148 N_a :3d2-   0.0005   0.0375  -0.0147  -0.0004   0.0155   0.0229   0.0000
 150 N_a :3d0    0.0018  -0.0227   0.0114  -0.0113  -0.0119  -0.0085  -0.0000
 151 N_a :3d1+   0.0000  -0.0000  -0.0000  -0.0000   0.0000   0.0000   0.0166
 152 N_a :3d2+   0.0006   0.0152   0.0087  -0.0067  -0.0140  -0.0213  -0.0000
 172 N_a :4f3-   0.0007  -0.0044   0.0038   0.0023   0.0306  -0.0004  -0.0000
 177 N_a :4f2+   0.0000   0.0000   0.0000   0.0000  -0.0000  -0.0000  -0.0174
 183 N_a :4f1+  -0.0009  -0.0128  -0.0026  -0.0031   0.0004   0.0131  -0.0000
 194 O_a :1s    -0.0003  -0.7299  -0.3060   0.5296  -0.0485  -0.1412  -0.0000
 196 O_a :1s     0.0014   0.0407  -0.0642   0.1604  -0.0072  -0.0591  -0.0000
 197 O_a :1s    -0.0027  -0.0660  -0.0366  -0.0135   0.0009   0.1493  -0.0000
 198 O_a :1s     0.0146   0.1253   0.0299   0.0148   0.0340  -0.0050   0.0000
 199 O_a :1s     0.0062   0.1064   0.0127   0.0339   0.0332   0.0012  -0.0000
 200 O_a :1s     0.0013  -0.0060   0.0442  -0.0066   0.0012  -0.0321  -0.0000
 201 O_a :2px    0.0000   0.2488  -0.0878   0.4518  -0.0609  -0.5889   0.0000
 202 O_a :2py    0.0000   0.0349  -0.0716   0.0082  -0.7378   0.1071  -0.0000
 203 O_a :2pz   -0.0000   0.0000   0.0000   0.0000  -0.0000   0.0000   0.6886
 204 O_a :2px    0.0000   0.0021   0.0076  -0.0176   0.0001   0.0089   0.0000
 207 O_a :2px    0.0003  -0.0850   0.0267  -0.0776   0.0017   0.0435  -0.0000
 208 O_a :2py    0.0023  -0.0251  -0.0136  -0.0090  -0.0533   0.0458   0.0000
 209 O_a :2pz    0.0000  -0.0000  -0.0000  -0.0000   0.0000  -0.0000   0.0412
 210 O_a :2px   -0.0059  -0.2434  -0.0170  -0.0105  -0.0631   0.0593   0.0000
 211 O_a :2py   -0.0064  -0.1094  -0.0410  -0.0028  -0.0566   0.0649  -0.0000
 213 O_a :2px    0.0086  -0.0938   0.0372  -0.0347  -0.0341  -0.0410   0.0000
 214 O_a :2py   -0.0031  -0.0994   0.0710  -0.0040  -0.0185  -0.0665  -0.0000
 215 O_a :2pz   -0.0000   0.0000   0.0000   0.0000  -0.0000  -0.0000  -0.0899
 216 O_a :2px    0.0002  -0.0214  -0.0016  -0.0047  -0.0028  -0.0067   0.0000
 217 O_a :2py   -0.0020   0.0221  -0.0048   0.0063   0.0068   0.0030   0.0000
 222 O_a :3d2-  -0.0000  -0.0030   0.0017  -0.0011   0.0112   0.0009  -0.0000
 225 O_a :3d1+   0.0000  -0.0000  -0.0000  -0.0000  -0.0000   0.0000  -0.0128
 226 O_a :3d2+   0.0000  -0.0099   0.0004  -0.0074   0.0001   0.0104  -0.0000
 227 O_a :3d2-  -0.0000  -0.0058   0.0065  -0.0012   0.0314  -0.0025   0.0000
 229 O_a :3d0   -0.0001   0.0118   0.0002   0.0062  -0.0040  -0.0108   0.0000
 230 O_a :3d1+  -0.0000   0.0000   0.0000   0.0000   0.0000  -0.0000  -0.0365
 231 O_a :3d2+  -0.0001  -0.0209  -0.0010  -0.0141  -0.0009   0.0211   0.0000
 232 O_a :3d2-  -0.0016   0.0141   0.0106   0.0005   0.0329  -0.0206   0.0000
 234 O_a :3d0    0.0002  -0.0153  -0.0004   0.0012   0.0013   0.0037  -0.0000
 235 O_a :3d1+  -0.0000   0.0000   0.0000   0.0000  -0.0000  -0.0000  -0.0332
 236 O_a :3d2+  -0.0004   0.0219   0.0004   0.0012  -0.0016   0.0008   0.0000
 237 O_a :3d2-   0.0023   0.0410  -0.0011   0.0039  -0.0119  -0.0132   0.0000
 239 O_a :3d0   -0.0020  -0.0377  -0.0002  -0.0050  -0.0119   0.0110   0.0000
 240 O_a :3d1+   0.0000   0.0000   0.0000   0.0000   0.0000  -0.0000   0.0138
 241 O_a :3d2+  -0.0020   0.0322  -0.0009   0.0091   0.0260   0.0021  -0.0000
 242 O_a :3d2-  -0.0016  -0.0073  -0.0183   0.0005  -0.0068   0.0209  -0.0000
 244 O_a :3d0    0.0003   0.0039   0.0047   0.0080  -0.0038  -0.0157   0.0000
 246 O_a :3d2+  -0.0029  -0.0149   0.0004   0.0028   0.0168   0.0264  -0.0000

    Orbital        14       15       16       17       18       19       20
   3 Cl_a:1s    -0.0000   0.0146   0.0260   0.0047  -0.0010  -0.0000   0.0041
   5 Cl_a:1s    -0.0000  -0.0083   0.0156   0.0004  -0.0119   0.0000   0.0011
   6 Cl_a:1s     0.0000   0.0146  -0.1271  -0.1404   0.0029  -0.0000  -0.1795
   7 Cl_a:1s     0.0000  -0.0667   0.0090  -0.0427  -0.9615  -0.0000  -0.2208
   8 Cl_a:1s    -0.0000  -0.0377   0.0135   0.8406   5.3330   0.0000  -0.9918
   9 Cl_a:1s    -0.0000   0.0011   0.0256  -1.0397  12.5089   0.0000  -7.3898
  13 Cl_a:2px    0.0000  -0.9458  -0.0409   0.0005   0.0013  -0.0000   0.0018
  14 Cl_a:2py   -0.0000   0.1400  -0.7339  -0.0060   0.0009   0.0000  -0.0010
  15 Cl_a:2pz    0.9473   0.0000  -0.0000  -0.0000   0.0000  -0.0018  -0.0000
  19 Cl_a:2px   -0.0000  -0.0493   0.0281  -0.0095  -0.0015   0.0000  -0.0060
  20 Cl_a:2py   -0.0000  -0.0046  -0.0245  -0.0159  -0.0008   0.0000  -0.0122
  21 Cl_a:2pz    0.0444  -0.0000   0.0000  -0.0000   0.0000  -0.0001   0.0000
  22 Cl_a:2px    0.0000  -0.3181  -0.0246  -0.2639  -0.1189  -0.0000  -0.1021
  23 Cl_a:2py   -0.0000   0.0125  -0.0378  -0.0162   0.1322   0.0000  -0.0152
  24 Cl_a:2pz    0.2359   0.0000   0.0000   0.0000  -0.0000  -0.0310  -0.0000
  25 Cl_a:2px    0.0000  -0.0673  -0.0393  -0.6859  -0.4692  -0.0000  -0.7915
  26 Cl_a:2py   -0.0000  -0.0320  -0.0175  -0.4973   1.4449   0.0000  -0.1896
  27 Cl_a:2pz    0.0250   0.0000   0.0000   0.0000  -0.0000   0.3877  -0.0000
  28 Cl_a:2px    0.0000  -0.0110  -0.0133  -0.0818  -1.6267  -0.0000   0.1459
  29 Cl_a:2py   -0.0000  -0.0186  -0.0024  -0.2972   1.4916   0.0000   0.0616
  30 Cl_a:2pz   -0.0122  -0.0000   0.0000   0.0000  -0.0000   1.0653   0.0000
  31 Cl_a:2px   -0.0000   0.0030   0.0025   0.3450   5.4296   0.0000  -1.6596
  32 Cl_a:2py    0.0000  -0.0003   0.0013   1.2088   0.5185  -0.0000  -2.0677
  33 Cl_a:2pz   -0.0007  -0.0000  -0.0000  -0.0000   0.0000  -2.2613   0.0000
  39 Cl_a:3d2-   0.0000  -0.0077  -0.0146  -0.0002  -0.0001  -0.0000  -0.0002
  41 Cl_a:3d0   -0.0000   0.0027   0.0102  -0.0003   0.0003   0.0000   0.0001
  43 Cl_a:3d2+   0.0000   0.0012   0.0168  -0.0006  -0.0000  -0.0000   0.0000
  44 Cl_a:3d2-   0.0000  -0.0114   0.0131  -0.0024   0.0014  -0.0000  -0.0034
  45 Cl_a:3d1-   0.0139   0.0000   0.0000   0.0000  -0.0000   0.0007  -0.0000
  48 Cl_a:3d2+   0.0000  -0.0010   0.0200   0.0043   0.0005  -0.0000   0.0037
  49 Cl_a:3d2-   0.0000  -0.0975  -0.0104  -0.0578  -0.0233  -0.0000  -0.0075
  50 Cl_a:3d1-   0.0795   0.0000   0.0000   0.0000  -0.0000  -0.0094  -0.0000
  51 Cl_a:3d0    0.0000   0.0152  -0.0054  -0.0037  -0.0085  -0.0000  -0.0107
  52 Cl_a:3d1+   0.0302   0.0000  -0.0000   0.0000  -0.0000   0.0022  -0.0000
  53 Cl_a:3d2+   0.0000  -0.0441   0.0032  -0.0349  -0.0460  -0.0000  -0.0247
  54 Cl_a:3d2-   0.0000  -0.0173  -0.0155  -0.0599   0.0220  -0.0000  -0.0608
  55 Cl_a:3d1-   0.0123   0.0000  -0.0000   0.0000  -0.0000   0.0219  -0.0000
  56 Cl_a:3d0   -0.0000   0.0132   0.0070   0.0345  -0.1126   0.0000   0.0044
  58 Cl_a:3d2+   0.0000  -0.0211   0.0106   0.0268  -0.1834  -0.0000   0.0453
  59 Cl_a:3d2-   0.0000  -0.0043  -0.0049  -0.0842  -0.1045  -0.0000  -0.1492
  60 Cl_a:3d1-  -0.0034   0.0000  -0.0000   0.0000  -0.0000   0.1371  -0.0000
  61 Cl_a:3d0    0.0000   0.0027   0.0031   0.0477  -0.0384  -0.0000  -0.0562
  62 Cl_a:3d1+  -0.0035   0.0000   0.0000   0.0000  -0.0000  -0.0692  -0.0000
  63 Cl_a:3d2+   0.0000   0.0005   0.0007   0.1013  -0.1524  -0.0000   0.0214
  85 Cl_a:4f3-   0.0000  -0.0116  -0.0011  -0.0086  -0.0093  -0.0000  -0.0056
  88 Cl_a:4f0   -0.0107  -0.0000  -0.0000  -0.0000   0.0000   0.0000   0.0000
  91 Cl_a:4f3+  -0.0000   0.0116   0.0025   0.0073   0.0032   0.0000  -0.0028
  92 Cl_a:4f3-   0.0000  -0.0042   0.0024   0.0046  -0.0142  -0.0000   0.0079
  94 Cl_a:4f1-  -0.0000   0.0009   0.0038   0.0025  -0.0170   0.0000   0.0024
 100 N_a :1s     0.0000  -0.0052   0.2426   0.0071  -0.0025   0.0000   0.0010
 102 N_a :1s    -0.0000  -0.0098   0.0933  -0.0077  -0.0162   0.0000  -0.0136
 103 N_a :1s    -0.0000   0.1162   0.2443   0.0310  -0.2189   0.0000  -0.0658
 104 N_a :1s     0.0000  -0.0748  -0.0181  -0.6470  -1.1178  -0.0000  -0.6345
 105 N_a :1s     0.0000  -0.0360  -0.0394  -4.0645  -8.1772  -0.0000  -1.5239
 106 N_a :1s    -0.0000  -0.0036   0.0200  -9.5066  16.3243   0.0000 -16.6886
 107 N_a :2px   -0.0000   0.0301  -0.2309  -0.0066   0.0016   0.0000  -0.0022
 108 N_a :2py    0.0000   0.0123   0.3445  -0.0020  -0.0002  -0.0000   0.0017
 110 N_a :2px    0.0000  -0.0030   0.0102  -0.0004  -0.0004  -0.0000  -0.0007
 113 N_a :2px   -0.0000  -0.0108   0.0119  -0.0179   0.0055   0.0000  -0.0166
 114 N_a :2py   -0.0000   0.0032   0.0922  -0.0120   0.0011   0.0000  -0.0173
 115 N_a :2pz    0.0214  -0.0000  -0.0000  -0.0000   0.0000  -0.0037   0.0000
 116 N_a :2px   -0.0000   0.2922  -0.0244   0.0384   0.1935   0.0000  -0.0887
 117 N_a :2py    0.0000  -0.0181   0.0065  -0.1539  -0.0576  -0.0000  -0.2214
 118 N_a :2pz   -0.1589  -0.0000  -0.0000  -0.0000   0.0000  -0.0152   0.0000
 119 N_a :2px   -0.0000  -0.0344   0.0701   0.6574   1.3627   0.0000   0.7868
 120 N_a :2py   -0.0000   0.0837   0.0440   0.8562   0.7010   0.0000  -0.1479
 121 N_a :2pz    0.0896   0.0000  -0.0000   0.0000  -0.0000  -0.4874  -0.0000
 122 N_a :2px    0.0000  -0.0134   0.0220  -1.1998   3.2395  -0.0000  -3.1386
 123 N_a :2py    0.0000   0.0233   0.0150  -2.0158   0.7299  -0.0000  -1.0919
 124 N_a :2pz    0.0338   0.0000  -0.0000   0.0000  -0.0000   0.8436  -0.0000
 125 N_a :2px    0.0000  -0.0030  -0.0024   0.8530  -8.7757  -0.0000   1.2114
 126 N_a :2py    0.0000  -0.0018  -0.0020  -2.2348  -6.0870  -0.0000   7.0826
 127 N_a :2pz    0.0015   0.0000  -0.0000  -0.0000   0.0000   5.1948  -0.0000
 133 N_a :3d2-   0.0000   0.0016  -0.0280   0.0002  -0.0002   0.0000  -0.0007
 134 N_a :3d1-  -0.0150   0.0000   0.0000   0.0000  -0.0000   0.0001  -0.0000
 135 N_a :3d0    0.0000   0.0004   0.0155   0.0003  -0.0001  -0.0000   0.0003
 136 N_a :3d1+  -0.0125  -0.0000   0.0000  -0.0000   0.0000  -0.0004   0.0000
 137 N_a :3d2+  -0.0000   0.0156   0.0209  -0.0006   0.0004   0.0000  -0.0005
 138 N_a :3d2-  -0.0000   0.0109   0.0318  -0.0002   0.0025   0.0000  -0.0042
 142 N_a :3d2+  -0.0000   0.0044   0.0312  -0.0091   0.0018   0.0000  -0.0076
 143 N_a :3d2-   0.0000  -0.1046   0.0149  -0.0839  -0.0572  -0.0000  -0.0468
 144 N_a :3d1-   0.0621   0.0000   0.0000   0.0000  -0.0000  -0.0153  -0.0000
 145 N_a :3d0    0.0000   0.0131  -0.0028  -0.0025  -0.0186  -0.0000  -0.0078
 146 N_a :3d1+   0.0123  -0.0000  -0.0000   0.0000  -0.0000  -0.0106   0.0000
 147 N_a :3d2+   0.0000   0.0105  -0.0404  -0.0918  -0.0080  -0.0000  -0.0871
 148 N_a :3d2-  -0.0000   0.0056  -0.0091  -0.0460   0.3761   0.0000  -0.1776
 149 N_a :3d1-   0.0010   0.0000   0.0000   0.0000  -0.0000   0.0835  -0.0000
 150 N_a :3d0    0.0000   0.0152  -0.0047  -0.0180  -0.2837  -0.0000  -0.0063
 151 N_a :3d1+   0.0316   0.0000  -0.0000   0.0000  -0.0000   0.0502  -0.0000
 152 N_a :3d2+   0.0000   0.0053   0.0088   0.0907  -0.1730  -0.0000  -0.0528
 153 N_a :3d2-   0.0000  -0.0020  -0.0025  -0.3065  -0.3764  -0.0000   0.1827
 154 N_a :3d1-  -0.0036  -0.0000   0.0000   0.0000  -0.0000   0.1712   0.0000
 155 N_a :3d0   -0.0000   0.0057  -0.0005   0.0025   0.0402   0.0000   0.1118
 156 N_a :3d1+   0.0037   0.0000  -0.0000   0.0000  -0.0000   0.4139  -0.0000
 157 N_a :3d2+   0.0000   0.0024   0.0020  -0.0966   0.0428  -0.0000  -0.4759
 179 N_a :4f3-  -0.0000   0.0076   0.0094   0.0156  -0.0015   0.0000   0.0045
 180 N_a :4f2-  -0.0109  -0.0000  -0.0000  -0.0000   0.0000   0.0052  -0.0000
 182 N_a :4f0    0.0141   0.0000   0.0000   0.0000  -0.0000  -0.0027  -0.0000
 184 N_a :4f2+   0.0101   0.0000  -0.0000   0.0000  -0.0000  -0.0019  -0.0000
 185 N_a :4f3+   0.0000  -0.0140   0.0029  -0.0228  -0.0001  -0.0000  -0.0116
 186 N_a :4f3-  -0.0000  -0.0027   0.0011   0.0331   0.1070   0.0000   0.0550
 187 N_a :4f2-  -0.0066   0.0000   0.0000   0.0000  -0.0000  -0.0288  -0.0000
 188 N_a :4f1-  -0.0000  -0.0015   0.0021  -0.0298   0.0241   0.0000  -0.0336
 190 N_a :4f1+   0.0000   0.0020  -0.0012  -0.0478  -0.0210  -0.0000  -0.0220
 192 N_a :4f3+   0.0000  -0.0020   0.0025  -0.0503   0.0390  -0.0000  -0.0302
 194 O_a :1s    -0.0000   0.0313  -0.0260   0.0067  -0.0009  -0.0000   0.0028
 196 O_a :1s     0.0000  -0.0027  -0.0309   0.0204  -0.0072  -0.0000   0.0180
 197 O_a :1s     0.0000  -0.0753  -0.0718   0.1139  -0.0275  -0.0000   0.1539
 198 O_a :1s    -0.0000   0.1735   0.0086   0.7777  -0.0501   0.0000   0.7917
 199 O_a :1s    -0.0000   0.0625   0.0216   3.1448   1.8881   0.0000   3.3164
 200 O_a :1s     0.0000  -0.0003  -0.0388   9.9832 -25.9853  -0.0000  23.4558
 201 O_a :2px   -0.0000  -0.0246   0.1307   0.0047  -0.0008   0.0000   0.0022
 202 O_a :2py   -0.0000  -0.1732  -0.4946   0.0046  -0.0004  -0.0000  -0.0005
 203 O_a :2pz   -0.1693  -0.0000   0.0000  -0.0000   0.0000  -0.0007   0.0000
 207 O_a :2px    0.0000   0.0033   0.0098  -0.0080  -0.0007   0.0000  -0.0102
 208 O_a :2py    0.0000  -0.0143  -0.0748  -0.0002  -0.0012  -0.0000   0.0025
 209 O_a :2pz   -0.0189   0.0000  -0.0000   0.0000  -0.0000   0.0018  -0.0000
 210 O_a :2px   -0.0000  -0.0402   0.0600   0.0197  -0.0875   0.0000   0.0179
 211 O_a :2py   -0.0000  -0.0441  -0.0809   0.0196   0.0346   0.0000   0.0800
 212 O_a :2pz   -0.0297   0.0000   0.0000   0.0000  -0.0000   0.0214  -0.0000
 213 O_a :2px   -0.0000   0.0883  -0.0378  -0.4407  -0.9336   0.0000  -0.5383
 214 O_a :2py    0.0000  -0.0927  -0.0262  -0.5856  -1.6912  -0.0000  -0.0279
 215 O_a :2pz   -0.1437  -0.0000  -0.0000  -0.0000   0.0000   0.1389   0.0000
 216 O_a :2px   -0.0000   0.0229  -0.0083   0.5152  -0.6031   0.0000   1.4138
 217 O_a :2py   -0.0000  -0.0124  -0.0079   2.0485   0.1942   0.0000   0.0542
 218 O_a :2pz   -0.0293  -0.0000   0.0000  -0.0000   0.0000  -1.6019   0.0000
 219 O_a :2px   -0.0000   0.0015   0.0020  -1.9033   4.8523   0.0000  -1.4906
 220 O_a :2py   -0.0000   0.0022   0.0018   0.6962   6.5390   0.0000  -5.3381
 221 O_a :2pz   -0.0020   0.0000   0.0000   0.0000  -0.0000  -2.3976  -0.0000
 232 O_a :3d2-  -0.0000  -0.0035   0.0129  -0.0002  -0.0004   0.0000  -0.0025
 237 O_a :3d2-   0.0000   0.0163   0.0091   0.0017   0.0020  -0.0000  -0.0153
 238 O_a :3d1-   0.0228  -0.0000  -0.0000  -0.0000   0.0000   0.0024   0.0000
 239 O_a :3d0   -0.0000  -0.0218   0.0017   0.0077  -0.0140   0.0000   0.0114
 240 O_a :3d1+   0.0129  -0.0000  -0.0000  -0.0000   0.0000  -0.0048   0.0000
 241 O_a :3d2+  -0.0000  -0.0190  -0.0068   0.0001   0.0186   0.0000   0.0019
 242 O_a :3d2-   0.0000  -0.0231   0.0140   0.0027   0.1179  -0.0000   0.0269
 243 O_a :3d1-   0.0265   0.0000  -0.0000   0.0000  -0.0000  -0.0094  -0.0000
 244 O_a :3d0   -0.0000  -0.0023   0.0011   0.0210  -0.0480   0.0000  -0.0012
 245 O_a :3d1+   0.0259   0.0000   0.0000   0.0000  -0.0000  -0.0343  -0.0000
 246 O_a :3d2+   0.0000  -0.0418  -0.0046  -0.0137  -0.0111  -0.0000   0.0400
 247 O_a :3d2-   0.0000  -0.0016   0.0024  -0.0819   0.0141  -0.0000  -0.1047
 248 O_a :3d1-   0.0067   0.0000  -0.0000   0.0000  -0.0000  -0.0225  -0.0000
 249 O_a :3d0   -0.0000  -0.0020   0.0005   0.1532  -0.0334   0.0000   0.0638
 250 O_a :3d1+   0.0037   0.0000   0.0000   0.0000  -0.0000  -0.0457   0.0000
 251 O_a :3d2+   0.0000  -0.0079  -0.0014   0.0542  -0.0682  -0.0000   0.1142
 279 O_a :4f3+   0.0000   0.0109   0.0028  -0.0007  -0.0018  -0.0000  -0.0019
 280 O_a :4f3-  -0.0000   0.0122  -0.0031   0.0155   0.0014   0.0000  -0.0106
 281 O_a :4f2-  -0.0030  -0.0000  -0.0000  -0.0000   0.0000   0.0121   0.0000
 286 O_a :4f3+  -0.0000   0.0014   0.0018   0.0148   0.0151   0.0000   0.0083

    Orbital        21       22       23       24       25       26
   5 Cl_a:1s    -0.0060   0.0000  -0.0099  -0.0026  -0.0000   0.0202
   6 Cl_a:1s     0.0146  -0.0000  -0.2276  -0.2155   0.0000   0.0343
   7 Cl_a:1s    -0.7913  -0.0000   0.7009  -0.2123   0.0000   1.5137
   8 Cl_a:1s     2.1022   0.0000  -5.7120   4.3024  -0.0000 -10.8416
   9 Cl_a:1s    13.7739   0.0000  -3.4554   4.3315   0.0000 -22.1931
  19 Cl_a:2px   -0.0050   0.0000  -0.0002  -0.0117  -0.0000   0.0103
  20 Cl_a:2py   -0.0047  -0.0000  -0.0240  -0.0273  -0.0000   0.0042
  22 Cl_a:2px    0.1528  -0.0000  -0.0468  -0.1064   0.0000   0.5580
  23 Cl_a:2py   -0.0612   0.0000  -0.0471  -0.1308  -0.0000  -0.3112
  24 Cl_a:2pz    0.0000  -0.1162   0.0000  -0.0000   0.4325  -0.0000
  25 Cl_a:2px    1.2164  -0.0000  -1.2257   0.5752   0.0000   2.0750
  26 Cl_a:2py    0.4271   0.0000  -2.0111  -0.9503  -0.0000  -2.5345
  27 Cl_a:2pz    0.0000  -2.3703   0.0000  -0.0000   2.0027  -0.0000
  28 Cl_a:2px    1.0401  -0.0000  -3.1820   0.9493   0.0000   3.1554
  29 Cl_a:2py   -1.6080   0.0000  -3.8587  -0.4363  -0.0000  -2.7594
  30 Cl_a:2pz    0.0000  -4.1317  -0.0000  -0.0000   2.3229  -0.0000
  31 Cl_a:2px   -2.1235   0.0000   1.1522  -0.5915  -0.0000 -10.2442
  32 Cl_a:2py    2.3071  -0.0000   4.3147   3.9629   0.0000  -0.3410
  33 Cl_a:2pz   -0.0000   4.7774  -0.0000   0.0000  -5.3296   0.0000
  49 Cl_a:3d2-   0.0266  -0.0000  -0.0054  -0.0269   0.0000   0.1217
  50 Cl_a:3d1-   0.0000  -0.0312   0.0000  -0.0000   0.1251  -0.0000
  51 Cl_a:3d0    0.0144   0.0000  -0.0066  -0.0011   0.0000   0.0191
  52 Cl_a:3d1+  -0.0000  -0.0167   0.0000  -0.0000   0.0474  -0.0000
  53 Cl_a:3d2+   0.0276  -0.0000  -0.0223   0.0158   0.0000   0.1400
  54 Cl_a:3d2-   0.0657  -0.0000  -0.1681   0.0689   0.0000   0.0737
  55 Cl_a:3d1-   0.0000  -0.1737   0.0000  -0.0000   0.2239  -0.0000
  56 Cl_a:3d0   -0.0465  -0.0000   0.1270   0.0545  -0.0000   0.1978
  57 Cl_a:3d1+   0.0000   0.0261   0.0000  -0.0000   0.0312  -0.0000
  58 Cl_a:3d2+  -0.0901  -0.0000   0.1725   0.0706   0.0000   0.3321
  59 Cl_a:3d2-   0.1631  -0.0000  -0.3443   0.1445   0.0000   0.3835
  60 Cl_a:3d1-  -0.0000  -0.4363   0.0000  -0.0000   0.3688  -0.0000
  61 Cl_a:3d0    0.1689  -0.0000   0.2917   0.1257   0.0000   0.0420
  62 Cl_a:3d1+   0.0000  -0.1522   0.0000  -0.0000  -0.1196  -0.0000
  63 Cl_a:3d2+  -0.0312  -0.0000   0.1410   0.2768   0.0000   0.2579
  85 Cl_a:4f3-   0.0092  -0.0000  -0.0070   0.0016   0.0000   0.0302
  86 Cl_a:4f2-  -0.0000  -0.0094   0.0000  -0.0000   0.0133  -0.0000
  88 Cl_a:4f0   -0.0000   0.0070  -0.0000   0.0000  -0.0166   0.0000
  90 Cl_a:4f2+  -0.0000   0.0034  -0.0000   0.0000  -0.0129   0.0000
  91 Cl_a:4f3+  -0.0003  -0.0000   0.0009   0.0083  -0.0000  -0.0149
  92 Cl_a:4f3-  -0.0244  -0.0000   0.0144   0.0132   0.0000   0.0238
  93 Cl_a:4f2-   0.0000   0.0116   0.0000  -0.0000   0.0082  -0.0000
  94 Cl_a:4f1-  -0.0026   0.0000   0.0172   0.0027  -0.0000   0.0312
  95 Cl_a:4f0   -0.0000   0.0036  -0.0000   0.0000  -0.0137   0.0000
  97 Cl_a:4f2+  -0.0000   0.0178   0.0000   0.0000  -0.0190   0.0000
  98 Cl_a:4f3+  -0.0089  -0.0000   0.0223  -0.0166   0.0000   0.0117
 102 N_a :1s    -0.0288   0.0000   0.0273  -0.0399  -0.0000   0.0244
 103 N_a :1s    -0.1901   0.0000   0.4686  -0.0819  -0.0000   0.3122
 104 N_a :1s    -0.5559  -0.0000   2.3802  -1.5623   0.0000   2.5363
 105 N_a :1s    -7.8023  -0.0000   7.0348 -10.7210   0.0000  16.8931
 106 N_a :1s    12.5336   0.0000   5.6508  -4.2417  -0.0000 -22.0271
 113 N_a :2px   -0.0151   0.0000   0.0131  -0.0313  -0.0000  -0.0049
 114 N_a :2py    0.0065  -0.0000   0.0093  -0.0174  -0.0000  -0.0045
 115 N_a :2pz   -0.0000   0.0159   0.0000   0.0000  -0.0014   0.0000
 116 N_a :2px   -0.1100   0.0000   0.0395  -0.1206  -0.0000  -0.5288
 117 N_a :2py    0.1725  -0.0000  -0.0389  -0.0291   0.0000   0.1993
 118 N_a :2pz   -0.0000   0.2907  -0.0000   0.0000  -0.3902   0.0000
 119 N_a :2px   -1.2983   0.0000   1.1649   0.3981  -0.0000  -3.5271
 120 N_a :2py    1.3783  -0.0000   0.5753   2.4148  -0.0000  -1.8049
 121 N_a :2pz    0.0000   3.4341  -0.0000  -0.0000  -0.7961  -0.0000
 122 N_a :2px    5.3356   0.0000   3.9105   2.3045   0.0000  -3.0215
 123 N_a :2py    7.5359   0.0000   4.2739  -5.3203   0.0000  -0.4257
 124 N_a :2pz    0.0000   2.5091   0.0000  -0.0000   5.6260  -0.0000
 125 N_a :2px   -6.1550  -0.0000   1.6207   0.6775   0.0000  11.6223
 126 N_a :2py    1.3789  -0.0000   3.1375  -7.6988   0.0000   8.8003
 127 N_a :2pz   -0.0000   4.6810   0.0000   0.0000   8.1743   0.0000
 138 N_a :3d2-   0.0030  -0.0000   0.0134   0.0030  -0.0000  -0.0064
 142 N_a :3d2+  -0.0063   0.0000   0.0027  -0.0170  -0.0000   0.0017
 143 N_a :3d2-   0.0991  -0.0000   0.0224   0.0396   0.0000   0.2117
 144 N_a :3d1-   0.0000  -0.0681   0.0000  -0.0000   0.1683  -0.0000
 145 N_a :3d0    0.0199  -0.0000   0.0058   0.0122   0.0000   0.0527
 146 N_a :3d1+   0.0000   0.0908  -0.0000   0.0000  -0.0005  -0.0000
 147 N_a :3d2+   0.0320  -0.0000  -0.0032  -0.0732   0.0000   0.1017
 148 N_a :3d2-   0.8038   0.0000  -0.5487   0.5470  -0.0000  -0.5118
 149 N_a :3d1-   0.0000  -0.6627   0.0000  -0.0000   0.5245  -0.0000
 150 N_a :3d0    0.0074  -0.0000   0.3208  -0.1033   0.0000   0.5814
 151 N_a :3d1+   0.0000   0.2895   0.0000  -0.0000   0.3494  -0.0000
 152 N_a :3d2+  -0.1158  -0.0000   0.5300   0.4510   0.0000   0.3663
 153 N_a :3d2-   0.6241   0.0000  -0.2659  -0.8466   0.0000   0.6776
 154 N_a :3d1-   0.0000  -0.7052  -0.0000   0.0000   0.3634  -0.0000
 155 N_a :3d0   -0.0054   0.0000   0.2438  -0.2565  -0.0000  -0.1122
 156 N_a :3d1+   0.0000  -0.1158   0.0000  -0.0000   1.1984  -0.0000
 157 N_a :3d2+   1.2628   0.0000   0.6002   0.5371   0.0000   0.2742
 179 N_a :4f3-  -0.0063  -0.0000   0.0047   0.0298  -0.0000  -0.0183
 180 N_a :4f2-  -0.0000  -0.0100   0.0000   0.0000   0.0012   0.0000
 181 N_a :4f1-   0.0021   0.0000   0.0149  -0.0085  -0.0000  -0.0054
 182 N_a :4f0    0.0000  -0.0152   0.0000  -0.0000   0.0245  -0.0000
 183 N_a :4f1+   0.0152   0.0000   0.0106   0.0017   0.0000   0.0211
 184 N_a :4f2+   0.0000   0.0211   0.0000  -0.0000   0.0148  -0.0000
 185 N_a :4f3+   0.0150  -0.0000   0.0270  -0.0131   0.0000   0.0274
 186 N_a :4f3-   0.0197   0.0000  -0.0733   0.0169  -0.0000  -0.2660
 187 N_a :4f2-   0.0000   0.0427   0.0000  -0.0000  -0.0860  -0.0000
 188 N_a :4f1-   0.0519   0.0000  -0.0217  -0.0288  -0.0000  -0.0118
 189 N_a :4f0    0.0000  -0.1197  -0.0000   0.0000   0.0131   0.0000
 190 N_a :4f1+   0.0885   0.0000   0.0020  -0.0733   0.0000   0.0892
 191 N_a :4f2+   0.0000  -0.0034   0.0000  -0.0000   0.0543  -0.0000
 192 N_a :4f3+   0.0788  -0.0000  -0.0093  -0.0357   0.0000  -0.0207
 196 O_a :1s     0.0155  -0.0000  -0.0204   0.0236   0.0000   0.0067
 197 O_a :1s     0.1169  -0.0000  -0.2124   0.2119   0.0000   0.0569
 198 O_a :1s     0.3596   0.0000  -0.6693   1.0346  -0.0000  -0.3374
 199 O_a :1s     3.0731   0.0000   0.1779   4.6858   0.0000  -4.7896
 200 O_a :1s   -22.9211  -0.0000  -5.4115   2.0242   0.0000  39.8517
 207 O_a :2px   -0.0108   0.0000   0.0132  -0.0176  -0.0000   0.0006
 210 O_a :2px   -0.0713   0.0000   0.1161  -0.0565  -0.0000   0.1168
 211 O_a :2py   -0.1424   0.0000  -0.0388  -0.1193  -0.0000  -0.0679
 212 O_a :2pz    0.0000  -0.1861   0.0000  -0.0000   0.0626  -0.0000
 213 O_a :2px    0.0572  -0.0000   0.0068  -1.4213  -0.0000   1.8267
 214 O_a :2py   -1.6496  -0.0000   0.6114  -1.5685   0.0000   3.4712
 215 O_a :2pz   -0.0000  -1.2504  -0.0000   0.0000  -0.8987   0.0000
 216 O_a :2px   -5.5637  -0.0000  -0.9462  -3.4317  -0.0000  -1.5091
 217 O_a :2py   -3.8053  -0.0000  -1.9235   6.4049  -0.0000  -1.2962
 218 O_a :2pz   -0.0000   1.6975  -0.0000   0.0000  -7.1300   0.0000
 219 O_a :2px    9.9503   0.0000  -2.6629  -0.4612  -0.0000  -5.6727
 220 O_a :2py   -2.9574   0.0000  -7.6138   5.3883  -0.0000 -10.7517
 221 O_a :2pz    0.0000  -9.5683   0.0000  -0.0000  -4.5091  -0.0000
 237 O_a :3d2-   0.0245  -0.0000   0.0150   0.0142   0.0000  -0.0052
 238 O_a :3d1-  -0.0000   0.0217  -0.0000   0.0000  -0.0155   0.0000
 239 O_a :3d0   -0.0213   0.0000  -0.0104  -0.0053  -0.0000   0.0106
 240 O_a :3d1+  -0.0000   0.0202  -0.0000   0.0000  -0.0081   0.0000
 241 O_a :3d2+   0.0021   0.0000  -0.0460   0.0113  -0.0000  -0.0310
 242 O_a :3d2-   0.0229   0.0000   0.0440  -0.0508   0.0000  -0.1988
 243 O_a :3d1-   0.0000   0.1766   0.0000  -0.0000  -0.0537  -0.0000
 244 O_a :3d0   -0.1154  -0.0000  -0.0576  -0.0481  -0.0000  -0.0051
 245 O_a :3d1+   0.0000  -0.1081  -0.0000  -0.0000   0.0602  -0.0000
 246 O_a :3d2+   0.0217   0.0000  -0.1296   0.0163   0.0000   0.0493
 247 O_a :3d2-  -0.0322  -0.0000   0.0373  -0.1055   0.0000   0.1552
 248 O_a :3d1-   0.0000   0.0373   0.0000  -0.0000   0.0230  -0.0000
 249 O_a :3d0   -0.3963  -0.0000  -0.1347   0.1690  -0.0000  -0.1654
 250 O_a :3d1+   0.0000  -0.2703  -0.0000  -0.0000   0.0878  -0.0000
 251 O_a :3d2+  -0.0724  -0.0000  -0.2101   0.1862   0.0000   0.1245
 279 O_a :4f3+   0.0002  -0.0000   0.0132  -0.0035   0.0000   0.0036
 280 O_a :4f3-   0.0087  -0.0000  -0.0115   0.0550  -0.0000  -0.0121
 281 O_a :4f2-  -0.0000  -0.0196  -0.0000   0.0000   0.0328   0.0000
 282 O_a :4f1-  -0.0225  -0.0000  -0.0043  -0.0088   0.0000   0.0052
 283 O_a :4f0    0.0000  -0.0174   0.0000  -0.0000  -0.0001  -0.0000
 284 O_a :4f1+   0.0166   0.0000  -0.0007   0.0051   0.0000   0.0253
 285 O_a :4f2+  -0.0000   0.0512   0.0000   0.0000  -0.0153   0.0000
 286 O_a :4f3+  -0.0319  -0.0000   0.0247   0.0128  -0.0000  -0.0432

  Total CPU  time used in SIRIUS :  42.37 seconds
  Total wall time used in SIRIUS :  42.64 seconds

 
     Date and time (Linux)  : Sat Jul 27 18:20:42 2024
     Host name              : dn006                                   

 NOTE:    1 warnings have been issued.
 Check output, result, and error files for "WARNING".


                     .---------------------------------------.
                     | End of Wave Function Section (SIRIUS) |
                     `---------------------------------------'



                 .------------------------------------------------.
                 | Starting in Dynamic Property Section (RESPONS) |
                 `------------------------------------------------'


 ----------------------------------------------------------------------------------------
  RESPONSE  -  an MCSCF, MC-srDFT, DFT, SOPPA and SOPPA-srDFT response property program
 ----------------------------------------------------------------------------------------


 -------- OUTPUT FROM RESPONSE INPUT PROCESSING --------




 Quadratic Response calculation
 ------------------------------

 First hyperpolarizability calculation : HYPCAL= T

 Spin of operator A , ISPINA=    0
 Spin of operator B , ISPINB=    0
 Spin of operator C , ISPINC=    0

  5 B-frequencies  0.000000D+00  6.344563D-03  1.268913D-02  1.903369D-02  2.537825D-02
  5 C-frequencies  0.000000D+00  6.344563D-03  1.268913D-02  1.903369D-02  2.537825D-02


 Print level                                    : IPRHYP =   2
 Maximum number of iterations in lin.rsp. solver: MAXITL =  60
 Threshold for convergence of linear resp. eq.s : THCLR  = 1.000D-03
 Maximum iterations in optimal orbital algorithm: MAXITO =   5
 Direct one-index transformation                : DIROIT = T

    3 A OPERATORS OF SYMMETRY NO:    1 AND LABELS:

          XDIPLEN 
          YDIPLEN 
          ZDIPLEN 

    3 B OPERATORS OF SYMMETRY NO:    1 AND LABELS:

          XDIPLEN 
          YDIPLEN 
          ZDIPLEN 

    3 C OPERATORS OF SYMMETRY NO:    1 AND LABELS:

          XDIPLEN 
          YDIPLEN 
          ZDIPLEN 


   SCF energy         :     -588.770016675290890
 -- inactive part     :     -673.918436459743930
 -- nuclear repulsion :       85.148419784453068


                     ***************************************
                     *** RHF response calculation (TDHF) ***
                     ***************************************



 Linear response calculations for quadratic response
 - singlet property operator of symmetry    1  ( A  )


 Perturbation symmetry.     KSYMOP:           1
 Perturbation spin symmetry.TRPLET:           F
 Orbital variables.         KZWOPT:        4304
 Configuration variables.   KZCONF:           0
 Total number of variables. KZVAR :        4304


 QRLRVE -- linear response calculation for symmetry  1  ( A  )
 QRLRVE -- operator label : XDIPLEN 
 QRLRVE -- operator spin  :   0
 QRLRVE -- frequencies :  0.000000  0.006345  0.012689  0.019034  0.025378
                          0.031723  0.038067  0.044412  0.050757



 ---  SOLVING SETS OF LINEAR EQUATIONS FOR LINEAR RESPONSE PROPERTIES ---

 Operator symmetry = 1  ( A  ); triplet =   F

RSPORT:    2 out of    9 new trial vectors linear dependent

 ** RSPCTL MICROITERATION NUMBER    1

       No.  Residual tot.,    conf., and orb.    Bnorm      Frequency 
      ----------------------------------------------------------------
         1    4.15431D+00  0.00D+00  4.15D+00  4.11D+00    0.00000D+00
         2    4.15504D+00  0.00D+00  4.16D+00  4.11D+00    6.34456D-03
         3    4.15724D+00  0.00D+00  4.16D+00  4.12D+00    1.26891D-02
         4    4.16091D+00  0.00D+00  4.16D+00  4.13D+00    1.90337D-02
         5    4.16607D+00  0.00D+00  4.17D+00  4.14D+00    2.53783D-02
         6    4.17275D+00  0.00D+00  4.17D+00  4.16D+00    3.17228D-02
         7    4.18096D+00  0.00D+00  4.18D+00  4.18D+00    3.80674D-02
         8    4.19074D+00  0.00D+00  4.19D+00  4.20D+00    4.44119D-02
         9    4.20214D+00  0.00D+00  4.20D+00  4.23D+00    5.07565D-02

 ** RSPCTL MICROITERATION NUMBER    2

       No.  Residual tot.,    conf., and orb.    Bnorm      Frequency 
      ----------------------------------------------------------------
         1    1.14992D+00  0.00D+00  1.15D+00  5.09D+00    0.00000D+00
         2    1.15030D+00  0.00D+00  1.15D+00  5.10D+00    6.34456D-03
         3    1.15145D+00  0.00D+00  1.15D+00  5.10D+00    1.26891D-02
         4    1.15338D+00  0.00D+00  1.15D+00  5.12D+00    1.90337D-02
         5    1.15611D+00  0.00D+00  1.16D+00  5.14D+00    2.53783D-02
         6    1.15965D+00  0.00D+00  1.16D+00  5.16D+00    3.17228D-02
         7    1.16404D+00  0.00D+00  1.16D+00  5.20D+00    3.80674D-02
         8    1.16932D+00  0.00D+00  1.17D+00  5.24D+00    4.44119D-02
         9    1.17554D+00  0.00D+00  1.18D+00  5.28D+00    5.07565D-02

 ** RSPCTL MICROITERATION NUMBER    3

       No.  Residual tot.,    conf., and orb.    Bnorm      Frequency 
      ----------------------------------------------------------------
         1    2.50535D-01  0.00D+00  2.51D-01  5.23D+00    0.00000D+00
         2    2.50699D-01  0.00D+00  2.51D-01  5.24D+00    6.34456D-03
         3    2.51192D-01  0.00D+00  2.51D-01  5.25D+00    1.26891D-02
         4    2.52020D-01  0.00D+00  2.52D-01  5.26D+00    1.90337D-02
         5    2.53191D-01  0.00D+00  2.53D-01  5.28D+00    2.53783D-02
         6    2.54720D-01  0.00D+00  2.55D-01  5.31D+00    3.17228D-02
         7    2.56623D-01  0.00D+00  2.57D-01  5.35D+00    3.80674D-02
         8    2.58926D-01  0.00D+00  2.59D-01  5.39D+00    4.44119D-02
         9    2.61656D-01  0.00D+00  2.62D-01  5.44D+00    5.07565D-02

 ** RSPCTL MICROITERATION NUMBER    4

       No.  Residual tot.,    conf., and orb.    Bnorm      Frequency 
      ----------------------------------------------------------------
         1    6.14165D-02  0.00D+00  6.14D-02  5.24D+00    0.00000D+00
         2    6.14726D-02  0.00D+00  6.15D-02  5.24D+00    6.34456D-03
         3    6.16417D-02  0.00D+00  6.16D-02  5.25D+00    1.26891D-02
         4    6.19259D-02  0.00D+00  6.19D-02  5.27D+00    1.90337D-02
         5    6.23289D-02  0.00D+00  6.23D-02  5.29D+00    2.53783D-02
         6    6.28560D-02  0.00D+00  6.29D-02  5.32D+00    3.17228D-02
         7    6.35145D-02  0.00D+00  6.35D-02  5.35D+00    3.80674D-02
         8    6.43136D-02  0.00D+00  6.43D-02  5.40D+00    4.44119D-02
         9    6.52651D-02  0.00D+00  6.53D-02  5.45D+00    5.07565D-02

 ** RSPCTL MICROITERATION NUMBER    5

       No.  Residual tot.,    conf., and orb.    Bnorm      Frequency 
      ----------------------------------------------------------------
         1    1.28346D-02  0.00D+00  1.28D-02  5.24D+00    0.00000D+00
         2    1.28483D-02  0.00D+00  1.28D-02  5.24D+00    6.34456D-03
         3    1.28897D-02  0.00D+00  1.29D-02  5.25D+00    1.26891D-02
         4    1.29592D-02  0.00D+00  1.30D-02  5.27D+00    1.90337D-02
         5    1.30581D-02  0.00D+00  1.31D-02  5.29D+00    2.53783D-02
         6    1.31878D-02  0.00D+00  1.32D-02  5.32D+00    3.17228D-02
         7    1.33505D-02  0.00D+00  1.34D-02  5.36D+00    3.80674D-02
         8    1.35488D-02  0.00D+00  1.35D-02  5.40D+00    4.44119D-02
         9    1.37862D-02  0.00D+00  1.38D-02  5.45D+00    5.07565D-02

 ** RSPCTL MICROITERATION NUMBER    6

       No.  Residual tot.,    conf., and orb.    Bnorm      Frequency 
      ----------------------------------------------------------------
         1    2.20739D-03  0.00D+00  2.21D-03  5.24D+00    0.00000D+00
         2    2.20967D-03  0.00D+00  2.21D-03  5.24D+00    6.34456D-03
         3    2.21655D-03  0.00D+00  2.22D-03  5.25D+00    1.26891D-02
         4    2.22811D-03  0.00D+00  2.23D-03  5.27D+00    1.90337D-02
         5    2.24450D-03  0.00D+00  2.24D-03  5.29D+00    2.53783D-02
         6    2.26593D-03  0.00D+00  2.27D-03  5.32D+00    3.17228D-02
         7    2.29270D-03  0.00D+00  2.29D-03  5.36D+00    3.80674D-02
         8    2.32520D-03  0.00D+00  2.33D-03  5.40D+00    4.44119D-02
         9    2.36391D-03  0.00D+00  2.36D-03  5.45D+00    5.07565D-02

 *** THE REQUESTED    9 SOLUTION VECTORS CONVERGED

 Convergence of RSP solution vectors, threshold = 1.00D-03
 ---------------------------------------------------------------
 (dimension of paired reduced space:  104)
 RSP solution vector no.    1; norm of residual   4.21D-04
 RSP solution vector no.    2; norm of residual   4.21D-04
 RSP solution vector no.    3; norm of residual   4.22D-04
 RSP solution vector no.    4; norm of residual   4.23D-04
 RSP solution vector no.    5; norm of residual   4.24D-04
 RSP solution vector no.    6; norm of residual   4.26D-04
 RSP solution vector no.    7; norm of residual   4.28D-04
 RSP solution vector no.    8; norm of residual   4.31D-04
 RSP solution vector no.    9; norm of residual   4.34D-04

 *** RSPCTL MICROITERATIONS CONVERGED

@ QRLRVE: SINGLET SOLUTION FOR SYMMETRY    1  ( A  )    LABEL   XDIPLEN     FREQUENCY   0.000000D+00

@ QRLRVE:  << XDIPLEN  ; XDIPLEN  >> (   0.00000):     31.6723414815    

@ QRLRVE:  << YDIPLEN  ; XDIPLEN  >> (   0.00000):     12.8457760695    

@ QRLRVE:  << ZDIPLEN  ; XDIPLEN  >> (   0.00000):    1.580970024314E-15

@ QRLRVE: SINGLET SOLUTION FOR SYMMETRY    1  ( A  )    LABEL   XDIPLEN     FREQUENCY   0.634456D-02

@ QRLRVE:  << XDIPLEN  ; XDIPLEN  >> (   0.00634):     31.6793877395    

@ QRLRVE:  << YDIPLEN  ; XDIPLEN  >> (   0.00634):     12.8538151318    

@ QRLRVE:  << ZDIPLEN  ; XDIPLEN  >> (   0.00634):    1.565389105791E-15

@ QRLRVE: SINGLET SOLUTION FOR SYMMETRY    1  ( A  )    LABEL   XDIPLEN     FREQUENCY   0.126891D-01

@ QRLRVE:  << XDIPLEN  ; XDIPLEN  >> (   0.01269):     31.7005655873    

@ QRLRVE:  << YDIPLEN  ; XDIPLEN  >> (   0.01269):     12.8780024173    

@ QRLRVE:  << ZDIPLEN  ; XDIPLEN  >> (   0.01269):    1.518242794756E-15

@ QRLRVE: SINGLET SOLUTION FOR SYMMETRY    1  ( A  )    LABEL   XDIPLEN     FREQUENCY   0.190337D-01

@ QRLRVE:  << XDIPLEN  ; XDIPLEN  >> (   0.01903):     31.7359930451    

@ QRLRVE:  << YDIPLEN  ; XDIPLEN  >> (   0.01903):     12.9185499312    

@ QRLRVE:  << ZDIPLEN  ; XDIPLEN  >> (   0.01903):    1.438302869936E-15

@ QRLRVE: SINGLET SOLUTION FOR SYMMETRY    1  ( A  )    LABEL   XDIPLEN     FREQUENCY   0.253783D-01

@ QRLRVE:  << XDIPLEN  ; XDIPLEN  >> (   0.02538):     31.7858695094    

@ QRLRVE:  << YDIPLEN  ; XDIPLEN  >> (   0.02538):     12.9758168000    

@ QRLRVE:  << ZDIPLEN  ; XDIPLEN  >> (   0.02538):    1.323462602255E-15

@ QRLRVE: SINGLET SOLUTION FOR SYMMETRY    1  ( A  )    LABEL   XDIPLEN     FREQUENCY   0.317228D-01

@ QRLRVE:  << XDIPLEN  ; XDIPLEN  >> (   0.03172):     31.8504799295    

@ QRLRVE:  << YDIPLEN  ; XDIPLEN  >> (   0.03172):     13.0503182467    

@ QRLRVE:  << ZDIPLEN  ; XDIPLEN  >> (   0.03172):    1.170642979001E-15

@ QRLRVE: SINGLET SOLUTION FOR SYMMETRY    1  ( A  )    LABEL   XDIPLEN     FREQUENCY   0.380674D-01

@ QRLRVE:  << XDIPLEN  ; XDIPLEN  >> (   0.03807):     31.9302009262    

@ QRLRVE:  << YDIPLEN  ; XDIPLEN  >> (   0.03807):     13.1427387802    

@ QRLRVE:  << ZDIPLEN  ; XDIPLEN  >> (   0.03807):    9.756525193690E-16

@ QRLRVE: SINGLET SOLUTION FOR SYMMETRY    1  ( A  )    LABEL   XDIPLEN     FREQUENCY   0.444119D-01

@ QRLRVE:  << XDIPLEN  ; XDIPLEN  >> (   0.04441):     32.0255091536    

@ QRLRVE:  << YDIPLEN  ; XDIPLEN  >> (   0.04441):     13.2539502865    

@ QRLRVE:  << ZDIPLEN  ; XDIPLEN  >> (   0.04441):    7.329907261798E-16

@ QRLRVE: SINGLET SOLUTION FOR SYMMETRY    1  ( A  )    LABEL   XDIPLEN     FREQUENCY   0.507565D-01

@ QRLRVE:  << XDIPLEN  ; XDIPLEN  >> (   0.05076):     32.1369923310    

@ QRLRVE:  << YDIPLEN  ; XDIPLEN  >> (   0.05076):     13.3850360025    

@ QRLRVE:  << ZDIPLEN  ; XDIPLEN  >> (   0.05076):    4.355807001148E-16


 QRLRVE -- linear response calculation for symmetry  1  ( A  )
 QRLRVE -- operator label : YDIPLEN 
 QRLRVE -- operator spin  :   0
 QRLRVE -- frequencies :  0.000000  0.006345  0.012689  0.019034  0.025378
                          0.031723  0.038067  0.044412  0.050757



 ---  SOLVING SETS OF LINEAR EQUATIONS FOR LINEAR RESPONSE PROPERTIES ---

 Operator symmetry = 1  ( A  ); triplet =   F

RSPORT:    2 out of    9 new trial vectors linear dependent

 ** RSPCTL MICROITERATION NUMBER    1

       No.  Residual tot.,    conf., and orb.    Bnorm      Frequency 
      ----------------------------------------------------------------
         1    4.69319D+00  0.00D+00  4.69D+00  5.61D+00    0.00000D+00
         2    4.69489D+00  0.00D+00  4.69D+00  5.61D+00    6.34456D-03
         3    4.69997D+00  0.00D+00  4.70D+00  5.62D+00    1.26891D-02
         4    4.70849D+00  0.00D+00  4.71D+00  5.64D+00    1.90337D-02
         5    4.72046D+00  0.00D+00  4.72D+00  5.67D+00    2.53783D-02
         6    4.73597D+00  0.00D+00  4.74D+00  5.71D+00    3.17228D-02
         7    4.75509D+00  0.00D+00  4.76D+00  5.75D+00    3.80674D-02
         8    4.77792D+00  0.00D+00  4.78D+00  5.80D+00    4.44119D-02
         9    4.80459D+00  0.00D+00  4.80D+00  5.86D+00    5.07565D-02

 ** RSPCTL MICROITERATION NUMBER    2

       No.  Residual tot.,    conf., and orb.    Bnorm      Frequency 
      ----------------------------------------------------------------
         1    1.50418D+00  0.00D+00  1.50D+00  7.41D+00    0.00000D+00
         2    1.50545D+00  0.00D+00  1.51D+00  7.42D+00    6.34456D-03
         3    1.50926D+00  0.00D+00  1.51D+00  7.44D+00    1.26891D-02
         4    1.51565D+00  0.00D+00  1.52D+00  7.48D+00    1.90337D-02
         5    1.52468D+00  0.00D+00  1.52D+00  7.53D+00    2.53783D-02
         6    1.53646D+00  0.00D+00  1.54D+00  7.59D+00    3.17228D-02
         7    1.55110D+00  0.00D+00  1.55D+00  7.67D+00    3.80674D-02
         8    1.56876D+00  0.00D+00  1.57D+00  7.77D+00    4.44119D-02
         9    1.58964D+00  0.00D+00  1.59D+00  7.88D+00    5.07565D-02

 ** RSPCTL MICROITERATION NUMBER    3

       No.  Residual tot.,    conf., and orb.    Bnorm      Frequency 
      ----------------------------------------------------------------
         1    3.80440D-01  0.00D+00  3.80D-01  7.68D+00    0.00000D+00
         2    3.81024D-01  0.00D+00  3.81D-01  7.69D+00    6.34456D-03
         3    3.82782D-01  0.00D+00  3.83D-01  7.71D+00    1.26891D-02
         4    3.85745D-01  0.00D+00  3.86D-01  7.75D+00    1.90337D-02
         5    3.89958D-01  0.00D+00  3.90D-01  7.81D+00    2.53783D-02
         6    3.95491D-01  0.00D+00  3.95D-01  7.88D+00    3.17228D-02
         7    4.02435D-01  0.00D+00  4.02D-01  7.97D+00    3.80674D-02
         8    4.10909D-01  0.00D+00  4.11D-01  8.08D+00    4.44119D-02
         9    4.21059D-01  0.00D+00  4.21D-01  8.21D+00    5.07565D-02

 ** RSPCTL MICROITERATION NUMBER    4

       No.  Residual tot.,    conf., and orb.    Bnorm      Frequency 
      ----------------------------------------------------------------
         1    7.37282D-02  0.00D+00  7.37D-02  7.69D+00    0.00000D+00
         2    7.38601D-02  0.00D+00  7.39D-02  7.70D+00    6.34456D-03
         3    7.42585D-02  0.00D+00  7.43D-02  7.73D+00    1.26891D-02
         4    7.49312D-02  0.00D+00  7.49D-02  7.77D+00    1.90337D-02
         5    7.58913D-02  0.00D+00  7.59D-02  7.82D+00    2.53783D-02
         6    7.71580D-02  0.00D+00  7.72D-02  7.90D+00    3.17228D-02
         7    7.87570D-02  0.00D+00  7.88D-02  7.99D+00    3.80674D-02
         8    8.07214D-02  0.00D+00  8.07D-02  8.10D+00    4.44119D-02
         9    8.30931D-02  0.00D+00  8.31D-02  8.23D+00    5.07565D-02

 ** RSPCTL MICROITERATION NUMBER    5

       No.  Residual tot.,    conf., and orb.    Bnorm      Frequency 
      ----------------------------------------------------------------
         1    1.17381D-02  0.00D+00  1.17D-02  7.69D+00    0.00000D+00
         2    1.17669D-02  0.00D+00  1.18D-02  7.70D+00    6.34456D-03
         3    1.18539D-02  0.00D+00  1.19D-02  7.73D+00    1.26891D-02
         4    1.20010D-02  0.00D+00  1.20D-02  7.77D+00    1.90337D-02
         5    1.22111D-02  0.00D+00  1.22D-02  7.82D+00    2.53783D-02
         6    1.24888D-02  0.00D+00  1.25D-02  7.90D+00    3.17228D-02
         7    1.28401D-02  0.00D+00  1.28D-02  7.99D+00    3.80674D-02
         8    1.32727D-02  0.00D+00  1.33D-02  8.10D+00    4.44119D-02
         9    1.37961D-02  0.00D+00  1.38D-02  8.23D+00    5.07565D-02

 ** RSPCTL MICROITERATION NUMBER    6

       No.  Residual tot.,    conf., and orb.    Bnorm      Frequency 
      ----------------------------------------------------------------
         1    2.28833D-03  0.00D+00  2.29D-03  7.69D+00    0.00000D+00
         2    2.29403D-03  0.00D+00  2.29D-03  7.70D+00    6.34456D-03
         3    2.31124D-03  0.00D+00  2.31D-03  7.73D+00    1.26891D-02
[...]
@ B-freq = 0.019034  C-freq = 0.019034     beta(Y;Z,Y) =     -0.00000000
@ B-freq = 0.019034  C-freq = 0.019034     beta(Z;Z,Y) =     43.29203415
@ B-freq = 0.025378  C-freq = 0.019034     beta(X;Z,Y) =      0.00000000
@ B-freq = 0.025378  C-freq = 0.019034     beta(Y;Z,Y) =     -0.00000000
@ B-freq = 0.025378  C-freq = 0.019034     beta(Z;Z,Y) =     43.38727973
@ B-freq = 0.000000  C-freq = 0.025378     beta(X;X,Y) = beta(X,Y,X)
@ B-freq = 0.000000  C-freq = 0.025378     beta(Y;X,Y) = beta(Y,Y,X)
@ B-freq = 0.000000  C-freq = 0.025378     beta(Z;X,Y) = beta(Z,Y,X)
@ B-freq = 0.006345  C-freq = 0.025378     beta(X;X,Y) = beta(X,Y,X)
@ B-freq = 0.006345  C-freq = 0.025378     beta(Y;X,Y) = beta(Y,Y,X)
@ B-freq = 0.006345  C-freq = 0.025378     beta(Z;X,Y) = beta(Z,Y,X)
@ B-freq = 0.012689  C-freq = 0.025378     beta(X;X,Y) = beta(X,Y,X)
@ B-freq = 0.012689  C-freq = 0.025378     beta(Y;X,Y) = beta(Y,Y,X)
@ B-freq = 0.012689  C-freq = 0.025378     beta(Z;X,Y) = beta(Z,Y,X)
@ B-freq = 0.019034  C-freq = 0.025378     beta(X;X,Y) = beta(X,Y,X)
@ B-freq = 0.019034  C-freq = 0.025378     beta(Y;X,Y) = beta(Y,Y,X)
@ B-freq = 0.019034  C-freq = 0.025378     beta(Z;X,Y) = beta(Z,Y,X)
@ B-freq = 0.025378  C-freq = 0.025378     beta(X;X,Y) = beta(X,Y,X)
@ B-freq = 0.025378  C-freq = 0.025378     beta(Y;X,Y) = beta(Y,Y,X)
@ B-freq = 0.025378  C-freq = 0.025378     beta(Z;X,Y) = beta(Z,Y,X)
@ B-freq = 0.000000  C-freq = 0.025378     beta(X;Y,Y) = beta(X,Y,Y)
@ B-freq = 0.000000  C-freq = 0.025378     beta(Y;Y,Y) = beta(Y,Y,Y)
@ B-freq = 0.000000  C-freq = 0.025378     beta(Z;Y,Y) = beta(Z,Y,Y)
@ B-freq = 0.006345  C-freq = 0.025378     beta(X;Y,Y) = beta(X,Y,Y)
@ B-freq = 0.006345  C-freq = 0.025378     beta(Y;Y,Y) = beta(Y,Y,Y)
@ B-freq = 0.006345  C-freq = 0.025378     beta(Z;Y,Y) = beta(Z,Y,Y)
@ B-freq = 0.012689  C-freq = 0.025378     beta(X;Y,Y) = beta(X,Y,Y)
@ B-freq = 0.012689  C-freq = 0.025378     beta(Y;Y,Y) = beta(Y,Y,Y)
@ B-freq = 0.012689  C-freq = 0.025378     beta(Z;Y,Y) = beta(Z,Y,Y)
@ B-freq = 0.019034  C-freq = 0.025378     beta(X;Y,Y) = beta(X,Y,Y)
@ B-freq = 0.019034  C-freq = 0.025378     beta(Y;Y,Y) = beta(Y,Y,Y)
@ B-freq = 0.019034  C-freq = 0.025378     beta(Z;Y,Y) = beta(Z,Y,Y)
@ B-freq = 0.025378  C-freq = 0.025378     beta(X;Y,Y) =     -1.48229988
@ B-freq = 0.025378  C-freq = 0.025378     beta(Y;Y,Y) =     66.30176847
@ B-freq = 0.025378  C-freq = 0.025378     beta(Z;Y,Y) =     -0.00000000
@ B-freq = 0.000000  C-freq = 0.025378     beta(X;Z,Y) =     -0.00000000
@ B-freq = 0.000000  C-freq = 0.025378     beta(Y;Z,Y) =     -0.00000000
@ B-freq = 0.000000  C-freq = 0.025378     beta(Z;Z,Y) =     43.37525549
@ B-freq = 0.006345  C-freq = 0.025378     beta(X;Z,Y) =     -0.00000000
@ B-freq = 0.006345  C-freq = 0.025378     beta(Y;Z,Y) =     -0.00000000
@ B-freq = 0.006345  C-freq = 0.025378     beta(Z;Z,Y) =     43.43314029
@ B-freq = 0.012689  C-freq = 0.025378     beta(X;Z,Y) =     -0.00000000
@ B-freq = 0.012689  C-freq = 0.025378     beta(Y;Z,Y) =     -0.00000000
@ B-freq = 0.012689  C-freq = 0.025378     beta(Z;Z,Y) =     43.50917131
@ B-freq = 0.019034  C-freq = 0.025378     beta(X;Z,Y) =      0.00000000
@ B-freq = 0.019034  C-freq = 0.025378     beta(Y;Z,Y) =     -0.00000000
@ B-freq = 0.019034  C-freq = 0.025378     beta(Z;Z,Y) =     43.59704608
@ B-freq = 0.025378  C-freq = 0.025378     beta(X;Z,Y) =      0.00000000
@ B-freq = 0.025378  C-freq = 0.025378     beta(Y;Z,Y) =     -0.00000000
@ B-freq = 0.025378  C-freq = 0.025378     beta(Z;Z,Y) =     43.68627748
@ B-freq = 0.000000  C-freq = 0.000000     beta(X;X,Z) = beta(Z,X,X)
@ B-freq = 0.000000  C-freq = 0.000000     beta(Y;X,Z) = beta(Z,Y,X)
@ B-freq = 0.000000  C-freq = 0.000000     beta(Z;X,Z) = beta(Z,Z,X)
@ B-freq = 0.006345  C-freq = 0.000000     beta(X;X,Z) = beta(X,Z,X)
@ B-freq = 0.006345  C-freq = 0.000000     beta(Y;X,Z) = beta(Y,Z,X)
@ B-freq = 0.006345  C-freq = 0.000000     beta(Z;X,Z) = beta(Z,Z,X)
@ B-freq = 0.012689  C-freq = 0.000000     beta(X;X,Z) = beta(X,Z,X)
@ B-freq = 0.012689  C-freq = 0.000000     beta(Y;X,Z) = beta(Y,Z,X)
@ B-freq = 0.012689  C-freq = 0.000000     beta(Z;X,Z) = beta(Z,Z,X)
@ B-freq = 0.019034  C-freq = 0.000000     beta(X;X,Z) = beta(X,Z,X)
@ B-freq = 0.019034  C-freq = 0.000000     beta(Y;X,Z) = beta(Y,Z,X)
@ B-freq = 0.019034  C-freq = 0.000000     beta(Z;X,Z) = beta(Z,Z,X)
@ B-freq = 0.025378  C-freq = 0.000000     beta(X;X,Z) = beta(X,Z,X)
@ B-freq = 0.025378  C-freq = 0.000000     beta(Y;X,Z) = beta(Y,Z,X)
@ B-freq = 0.025378  C-freq = 0.000000     beta(Z;X,Z) = beta(Z,Z,X)
@ B-freq = 0.000000  C-freq = 0.000000     beta(X;Y,Z) = beta(Z,Y,X)
@ B-freq = 0.000000  C-freq = 0.000000     beta(Y;Y,Z) = beta(Z,Y,Y)
@ B-freq = 0.000000  C-freq = 0.000000     beta(Z;Y,Z) = beta(Z,Z,Y)
@ B-freq = 0.006345  C-freq = 0.000000     beta(X;Y,Z) = beta(X,Z,Y)
@ B-freq = 0.006345  C-freq = 0.000000     beta(Y;Y,Z) = beta(Y,Z,Y)
@ B-freq = 0.006345  C-freq = 0.000000     beta(Z;Y,Z) = beta(Z,Z,Y)
@ B-freq = 0.012689  C-freq = 0.000000     beta(X;Y,Z) = beta(X,Z,Y)
@ B-freq = 0.012689  C-freq = 0.000000     beta(Y;Y,Z) = beta(Y,Z,Y)
@ B-freq = 0.012689  C-freq = 0.000000     beta(Z;Y,Z) = beta(Z,Z,Y)
@ B-freq = 0.019034  C-freq = 0.000000     beta(X;Y,Z) = beta(X,Z,Y)
@ B-freq = 0.019034  C-freq = 0.000000     beta(Y;Y,Z) = beta(Y,Z,Y)
@ B-freq = 0.019034  C-freq = 0.000000     beta(Z;Y,Z) = beta(Z,Z,Y)
@ B-freq = 0.025378  C-freq = 0.000000     beta(X;Y,Z) = beta(X,Z,Y)
@ B-freq = 0.025378  C-freq = 0.000000     beta(Y;Y,Z) = beta(Y,Z,Y)
@ B-freq = 0.025378  C-freq = 0.000000     beta(Z;Y,Z) = beta(Z,Z,Y)
@ B-freq = 0.000000  C-freq = 0.000000     beta(X;Z,Z) = beta(Z,Z,X)
@ B-freq = 0.000000  C-freq = 0.000000     beta(Y;Z,Z) = beta(Z,Z,Y)
@ B-freq = 0.000000  C-freq = 0.000000     beta(X;Z,Z) =     22.37540699
@ B-freq = 0.000000  C-freq = 0.000000     beta(Y;Z,Z) =     42.72230520
@ B-freq = 0.000000  C-freq = 0.000000     beta(Z;Z,Z) =     -0.00000000
@ B-freq = 0.006345  C-freq = 0.000000     beta(X;Z,Z) =     22.39494753
@ B-freq = 0.006345  C-freq = 0.000000     beta(Y;Z,Z) =     42.76284385
@ B-freq = 0.006345  C-freq = 0.000000     beta(Z;Z,Z) =     -0.00000000
@ B-freq = 0.012689  C-freq = 0.000000     beta(X;Z,Z) =     22.45368706
@ B-freq = 0.012689  C-freq = 0.000000     beta(Y;Z,Z) =     42.88468405
@ B-freq = 0.012689  C-freq = 0.000000     beta(Z;Z,Z) =     -0.00000000
@ B-freq = 0.019034  C-freq = 0.000000     beta(X;Z,Z) =     22.55197358
@ B-freq = 0.019034  C-freq = 0.000000     beta(Y;Z,Z) =     43.08848034
@ B-freq = 0.019034  C-freq = 0.000000     beta(Z;Z,Z) =     -0.00000000
@ B-freq = 0.025378  C-freq = 0.000000     beta(X;Z,Z) =     22.69036573
@ B-freq = 0.025378  C-freq = 0.000000     beta(Y;Z,Z) =     43.37525655
@ B-freq = 0.025378  C-freq = 0.000000     beta(Z;Z,Z) =     -0.00000000
@ B-freq = 0.000000  C-freq = 0.006345     beta(X;X,Z) = beta(X,Z,X)
@ B-freq = 0.000000  C-freq = 0.006345     beta(Y;X,Z) = beta(Y,Z,X)
@ B-freq = 0.000000  C-freq = 0.006345     beta(Z;X,Z) = beta(Z,Z,X)
@ B-freq = 0.006345  C-freq = 0.006345     beta(X;X,Z) = beta(X,Z,X)
@ B-freq = 0.006345  C-freq = 0.006345     beta(Y;X,Z) = beta(Y,Z,X)
@ B-freq = 0.006345  C-freq = 0.006345     beta(Z;X,Z) = beta(Z,Z,X)
@ B-freq = 0.012689  C-freq = 0.006345     beta(X;X,Z) = beta(X,Z,X)
@ B-freq = 0.012689  C-freq = 0.006345     beta(Y;X,Z) = beta(Y,Z,X)
@ B-freq = 0.012689  C-freq = 0.006345     beta(Z;X,Z) = beta(Z,Z,X)
@ B-freq = 0.019034  C-freq = 0.006345     beta(X;X,Z) = beta(X,Z,X)
@ B-freq = 0.019034  C-freq = 0.006345     beta(Y;X,Z) = beta(Y,Z,X)
@ B-freq = 0.019034  C-freq = 0.006345     beta(Z;X,Z) = beta(Z,Z,X)
@ B-freq = 0.025378  C-freq = 0.006345     beta(X;X,Z) = beta(X,Z,X)
@ B-freq = 0.025378  C-freq = 0.006345     beta(Y;X,Z) = beta(Y,Z,X)
@ B-freq = 0.025378  C-freq = 0.006345     beta(Z;X,Z) = beta(Z,Z,X)
@ B-freq = 0.000000  C-freq = 0.006345     beta(X;Y,Z) = beta(X,Z,Y)
@ B-freq = 0.000000  C-freq = 0.006345     beta(Y;Y,Z) = beta(Y,Z,Y)
@ B-freq = 0.000000  C-freq = 0.006345     beta(Z;Y,Z) = beta(Z,Z,Y)
@ B-freq = 0.006345  C-freq = 0.006345     beta(X;Y,Z) = beta(X,Z,Y)
@ B-freq = 0.006345  C-freq = 0.006345     beta(Y;Y,Z) = beta(Y,Z,Y)
@ B-freq = 0.006345  C-freq = 0.006345     beta(Z;Y,Z) = beta(Z,Z,Y)
@ B-freq = 0.012689  C-freq = 0.006345     beta(X;Y,Z) = beta(X,Z,Y)
@ B-freq = 0.012689  C-freq = 0.006345     beta(Y;Y,Z) = beta(Y,Z,Y)
@ B-freq = 0.012689  C-freq = 0.006345     beta(Z;Y,Z) = beta(Z,Z,Y)
@ B-freq = 0.019034  C-freq = 0.006345     beta(X;Y,Z) = beta(X,Z,Y)
@ B-freq = 0.019034  C-freq = 0.006345     beta(Y;Y,Z) = beta(Y,Z,Y)
@ B-freq = 0.019034  C-freq = 0.006345     beta(Z;Y,Z) = beta(Z,Z,Y)
@ B-freq = 0.025378  C-freq = 0.006345     beta(X;Y,Z) = beta(X,Z,Y)
@ B-freq = 0.025378  C-freq = 0.006345     beta(Y;Y,Z) = beta(Y,Z,Y)
@ B-freq = 0.025378  C-freq = 0.006345     beta(Z;Y,Z) = beta(Z,Z,Y)
@ B-freq = 0.000000  C-freq = 0.006345     beta(X;Z,Z) = beta(X,Z,Z)
@ B-freq = 0.000000  C-freq = 0.006345     beta(Y;Z,Z) = beta(Y,Z,Z)
@ B-freq = 0.000000  C-freq = 0.006345     beta(Z;Z,Z) = beta(Z,Z,Z)
@ B-freq = 0.006345  C-freq = 0.006345     beta(X;Z,Z) =     22.44642640
@ B-freq = 0.006345  C-freq = 0.006345     beta(Y;Z,Z) =     42.87211308
@ B-freq = 0.006345  C-freq = 0.006345     beta(Z;Z,Z) =     -0.00000000
@ B-freq = 0.012689  C-freq = 0.006345     beta(X;Z,Z) =     22.53757919
@ B-freq = 0.012689  C-freq = 0.006345     beta(Y;Z,Z) =     43.06376546
@ B-freq = 0.012689  C-freq = 0.006345     beta(Z;Z,Z) =     -0.00000000
@ B-freq = 0.019034  C-freq = 0.006345     beta(X;Z,Z) =     22.66909554
@ B-freq = 0.019034  C-freq = 0.006345     beta(Y;Z,Z) =     43.33922921
@ B-freq = 0.019034  C-freq = 0.006345     beta(Z;Z,Z) =     -0.00000000
@ B-freq = 0.025378  C-freq = 0.006345     beta(X;Z,Z) =     22.84189687
@ B-freq = 0.025378  C-freq = 0.006345     beta(Y;Z,Z) =     43.70034847
@ B-freq = 0.025378  C-freq = 0.006345     beta(Z;Z,Z) =     -0.00000000
@ B-freq = 0.000000  C-freq = 0.012689     beta(X;X,Z) = beta(X,Z,X)
@ B-freq = 0.000000  C-freq = 0.012689     beta(Y;X,Z) = beta(Y,Z,X)
@ B-freq = 0.000000  C-freq = 0.012689     beta(Z;X,Z) = beta(Z,Z,X)
@ B-freq = 0.006345  C-freq = 0.012689     beta(X;X,Z) = beta(X,Z,X)
@ B-freq = 0.006345  C-freq = 0.012689     beta(Y;X,Z) = beta(Y,Z,X)
@ B-freq = 0.006345  C-freq = 0.012689     beta(Z;X,Z) = beta(Z,Z,X)
@ B-freq = 0.012689  C-freq = 0.012689     beta(X;X,Z) = beta(X,Z,X)
@ B-freq = 0.012689  C-freq = 0.012689     beta(Y;X,Z) = beta(Y,Z,X)
@ B-freq = 0.012689  C-freq = 0.012689     beta(Z;X,Z) = beta(Z,Z,X)
@ B-freq = 0.019034  C-freq = 0.012689     beta(X;X,Z) = beta(X,Z,X)
@ B-freq = 0.019034  C-freq = 0.012689     beta(Y;X,Z) = beta(Y,Z,X)
@ B-freq = 0.019034  C-freq = 0.012689     beta(Z;X,Z) = beta(Z,Z,X)
@ B-freq = 0.025378  C-freq = 0.012689     beta(X;X,Z) = beta(X,Z,X)
@ B-freq = 0.025378  C-freq = 0.012689     beta(Y;X,Z) = beta(Y,Z,X)
@ B-freq = 0.025378  C-freq = 0.012689     beta(Z;X,Z) = beta(Z,Z,X)
@ B-freq = 0.000000  C-freq = 0.012689     beta(X;Y,Z) = beta(X,Z,Y)
@ B-freq = 0.000000  C-freq = 0.012689     beta(Y;Y,Z) = beta(Y,Z,Y)
@ B-freq = 0.000000  C-freq = 0.012689     beta(Z;Y,Z) = beta(Z,Z,Y)
@ B-freq = 0.006345  C-freq = 0.012689     beta(X;Y,Z) = beta(X,Z,Y)
@ B-freq = 0.006345  C-freq = 0.012689     beta(Y;Y,Z) = beta(Y,Z,Y)
@ B-freq = 0.006345  C-freq = 0.012689     beta(Z;Y,Z) = beta(Z,Z,Y)
@ B-freq = 0.012689  C-freq = 0.012689     beta(X;Y,Z) = beta(X,Z,Y)
@ B-freq = 0.012689  C-freq = 0.012689     beta(Y;Y,Z) = beta(Y,Z,Y)
@ B-freq = 0.012689  C-freq = 0.012689     beta(Z;Y,Z) = beta(Z,Z,Y)
@ B-freq = 0.019034  C-freq = 0.012689     beta(X;Y,Z) = beta(X,Z,Y)
@ B-freq = 0.019034  C-freq = 0.012689     beta(Y;Y,Z) = beta(Y,Z,Y)
@ B-freq = 0.019034  C-freq = 0.012689     beta(Z;Y,Z) = beta(Z,Z,Y)
@ B-freq = 0.025378  C-freq = 0.012689     beta(X;Y,Z) = beta(X,Z,Y)
@ B-freq = 0.025378  C-freq = 0.012689     beta(Y;Y,Z) = beta(Y,Z,Y)
@ B-freq = 0.025378  C-freq = 0.012689     beta(Z;Y,Z) = beta(Z,Z,Y)
@ B-freq = 0.000000  C-freq = 0.012689     beta(X;Z,Z) = beta(X,Z,Z)
@ B-freq = 0.000000  C-freq = 0.012689     beta(Y;Z,Z) = beta(Y,Z,Z)
@ B-freq = 0.000000  C-freq = 0.012689     beta(Z;Z,Z) = beta(Z,Z,Z)
@ B-freq = 0.006345  C-freq = 0.012689     beta(X;Z,Z) = beta(X,Z,Z)
@ B-freq = 0.006345  C-freq = 0.012689     beta(Y;Z,Z) = beta(Y,Z,Z)
@ B-freq = 0.006345  C-freq = 0.012689     beta(Z;Z,Z) = beta(Z,Z,Z)
@ B-freq = 0.012689  C-freq = 0.012689     beta(X;Z,Z) =     22.66192545
@ B-freq = 0.012689  C-freq = 0.012689     beta(Y;Z,Z) =     43.32701630
@ B-freq = 0.012689  C-freq = 0.012689     beta(Z;Z,Z) =     -0.00000000
@ B-freq = 0.019034  C-freq = 0.012689     beta(X;Z,Z) =     22.82777584
@ B-freq = 0.019034  C-freq = 0.012689     beta(Y;Z,Z) =     43.67668340
@ B-freq = 0.019034  C-freq = 0.012689     beta(Z;Z,Z) =     -0.00000000
@ B-freq = 0.025378  C-freq = 0.012689     beta(X;Z,Z) =     23.03644164
@ B-freq = 0.025378  C-freq = 0.012689     beta(Y;Z,Z) =     44.11549589
@ B-freq = 0.025378  C-freq = 0.012689     beta(Z;Z,Z) =     -0.00000000
@ B-freq = 0.000000  C-freq = 0.019034     beta(X;X,Z) = beta(X,Z,X)
@ B-freq = 0.000000  C-freq = 0.019034     beta(Y;X,Z) = beta(Y,Z,X)
@ B-freq = 0.000000  C-freq = 0.019034     beta(Z;X,Z) = beta(Z,Z,X)
@ B-freq = 0.006345  C-freq = 0.019034     beta(X;X,Z) = beta(X,Z,X)
@ B-freq = 0.006345  C-freq = 0.019034     beta(Y;X,Z) = beta(Y,Z,X)
@ B-freq = 0.006345  C-freq = 0.019034     beta(Z;X,Z) = beta(Z,Z,X)
@ B-freq = 0.012689  C-freq = 0.019034     beta(X;X,Z) = beta(X,Z,X)
@ B-freq = 0.012689  C-freq = 0.019034     beta(Y;X,Z) = beta(Y,Z,X)
@ B-freq = 0.012689  C-freq = 0.019034     beta(Z;X,Z) = beta(Z,Z,X)
@ B-freq = 0.019034  C-freq = 0.019034     beta(X;X,Z) = beta(X,Z,X)
@ B-freq = 0.019034  C-freq = 0.019034     beta(Y;X,Z) = beta(Y,Z,X)
@ B-freq = 0.019034  C-freq = 0.019034     beta(Z;X,Z) = beta(Z,Z,X)
@ B-freq = 0.025378  C-freq = 0.019034     beta(X;X,Z) = beta(X,Z,X)
@ B-freq = 0.025378  C-freq = 0.019034     beta(Y;X,Z) = beta(Y,Z,X)
@ B-freq = 0.025378  C-freq = 0.019034     beta(Z;X,Z) = beta(Z,Z,X)
@ B-freq = 0.000000  C-freq = 0.019034     beta(X;Y,Z) = beta(X,Z,Y)
@ B-freq = 0.000000  C-freq = 0.019034     beta(Y;Y,Z) = beta(Y,Z,Y)
@ B-freq = 0.000000  C-freq = 0.019034     beta(Z;Y,Z) = beta(Z,Z,Y)
@ B-freq = 0.006345  C-freq = 0.019034     beta(X;Y,Z) = beta(X,Z,Y)
@ B-freq = 0.006345  C-freq = 0.019034     beta(Y;Y,Z) = beta(Y,Z,Y)
@ B-freq = 0.006345  C-freq = 0.019034     beta(Z;Y,Z) = beta(Z,Z,Y)
@ B-freq = 0.012689  C-freq = 0.019034     beta(X;Y,Z) = beta(X,Z,Y)
@ B-freq = 0.012689  C-freq = 0.019034     beta(Y;Y,Z) = beta(Y,Z,Y)
@ B-freq = 0.012689  C-freq = 0.019034     beta(Z;Y,Z) = beta(Z,Z,Y)
@ B-freq = 0.019034  C-freq = 0.019034     beta(X;Y,Z) = beta(X,Z,Y)
@ B-freq = 0.019034  C-freq = 0.019034     beta(Y;Y,Z) = beta(Y,Z,Y)
@ B-freq = 0.019034  C-freq = 0.019034     beta(Z;Y,Z) = beta(Z,Z,Y)
@ B-freq = 0.025378  C-freq = 0.019034     beta(X;Y,Z) = beta(X,Z,Y)
@ B-freq = 0.025378  C-freq = 0.019034     beta(Y;Y,Z) = beta(Y,Z,Y)
@ B-freq = 0.025378  C-freq = 0.019034     beta(Z;Y,Z) = beta(Z,Z,Y)
@ B-freq = 0.000000  C-freq = 0.019034     beta(X;Z,Z) = beta(X,Z,Z)
@ B-freq = 0.000000  C-freq = 0.019034     beta(Y;Z,Z) = beta(Y,Z,Z)
@ B-freq = 0.000000  C-freq = 0.019034     beta(Z;Z,Z) = beta(Z,Z,Z)
@ B-freq = 0.006345  C-freq = 0.019034     beta(X;Z,Z) = beta(X,Z,Z)
@ B-freq = 0.006345  C-freq = 0.019034     beta(Y;Z,Z) = beta(Y,Z,Z)
@ B-freq = 0.006345  C-freq = 0.019034     beta(Z;Z,Z) = beta(Z,Z,Z)
@ B-freq = 0.012689  C-freq = 0.019034     beta(X;Z,Z) = beta(X,Z,Z)
@ B-freq = 0.012689  C-freq = 0.019034     beta(Y;Z,Z) = beta(Y,Z,Z)
@ B-freq = 0.012689  C-freq = 0.019034     beta(Z;Z,Z) = beta(Z,Z,Z)
@ B-freq = 0.019034  C-freq = 0.019034     beta(X;Z,Z) =     23.02945299
@ B-freq = 0.019034  C-freq = 0.019034     beta(Y;Z,Z) =     44.10397599
@ B-freq = 0.019034  C-freq = 0.019034     beta(Z;Z,Z) =     -0.00000000
@ B-freq = 0.025378  C-freq = 0.019034     beta(X;Z,Z) =     23.27586602
@ B-freq = 0.025378  C-freq = 0.019034     beta(Y;Z,Z) =     44.62481224
@ B-freq = 0.025378  C-freq = 0.019034     beta(Z;Z,Z) =     -0.00000000
@ B-freq = 0.000000  C-freq = 0.025378     beta(X;X,Z) = beta(X,Z,X)
@ B-freq = 0.000000  C-freq = 0.025378     beta(Y;X,Z) = beta(Y,Z,X)
@ B-freq = 0.000000  C-freq = 0.025378     beta(Z;X,Z) = beta(Z,Z,X)
@ B-freq = 0.006345  C-freq = 0.025378     beta(X;X,Z) = beta(X,Z,X)
@ B-freq = 0.006345  C-freq = 0.025378     beta(Y;X,Z) = beta(Y,Z,X)
@ B-freq = 0.006345  C-freq = 0.025378     beta(Z;X,Z) = beta(Z,Z,X)
@ B-freq = 0.012689  C-freq = 0.025378     beta(X;X,Z) = beta(X,Z,X)
@ B-freq = 0.012689  C-freq = 0.025378     beta(Y;X,Z) = beta(Y,Z,X)
@ B-freq = 0.012689  C-freq = 0.025378     beta(Z;X,Z) = beta(Z,Z,X)
@ B-freq = 0.019034  C-freq = 0.025378     beta(X;X,Z) = beta(X,Z,X)
@ B-freq = 0.019034  C-freq = 0.025378     beta(Y;X,Z) = beta(Y,Z,X)
@ B-freq = 0.019034  C-freq = 0.025378     beta(Z;X,Z) = beta(Z,Z,X)
@ B-freq = 0.025378  C-freq = 0.025378     beta(X;X,Z) = beta(X,Z,X)
@ B-freq = 0.025378  C-freq = 0.025378     beta(Y;X,Z) = beta(Y,Z,X)
@ B-freq = 0.025378  C-freq = 0.025378     beta(Z;X,Z) = beta(Z,Z,X)
@ B-freq = 0.000000  C-freq = 0.025378     beta(X;Y,Z) = beta(X,Z,Y)
@ B-freq = 0.000000  C-freq = 0.025378     beta(Y;Y,Z) = beta(Y,Z,Y)
@ B-freq = 0.000000  C-freq = 0.025378     beta(Z;Y,Z) = beta(Z,Z,Y)
@ B-freq = 0.006345  C-freq = 0.025378     beta(X;Y,Z) = beta(X,Z,Y)
@ B-freq = 0.006345  C-freq = 0.025378     beta(Y;Y,Z) = beta(Y,Z,Y)
@ B-freq = 0.006345  C-freq = 0.025378     beta(Z;Y,Z) = beta(Z,Z,Y)
@ B-freq = 0.012689  C-freq = 0.025378     beta(X;Y,Z) = beta(X,Z,Y)
@ B-freq = 0.012689  C-freq = 0.025378     beta(Y;Y,Z) = beta(Y,Z,Y)
@ B-freq = 0.012689  C-freq = 0.025378     beta(Z;Y,Z) = beta(Z,Z,Y)
@ B-freq = 0.019034  C-freq = 0.025378     beta(X;Y,Z) = beta(X,Z,Y)
@ B-freq = 0.019034  C-freq = 0.025378     beta(Y;Y,Z) = beta(Y,Z,Y)
@ B-freq = 0.019034  C-freq = 0.025378     beta(Z;Y,Z) = beta(Z,Z,Y)
@ B-freq = 0.025378  C-freq = 0.025378     beta(X;Y,Z) = beta(X,Z,Y)
@ B-freq = 0.025378  C-freq = 0.025378     beta(Y;Y,Z) = beta(Y,Z,Y)
@ B-freq = 0.025378  C-freq = 0.025378     beta(Z;Y,Z) = beta(Z,Z,Y)
@ B-freq = 0.000000  C-freq = 0.025378     beta(X;Z,Z) = beta(X,Z,Z)
@ B-freq = 0.000000  C-freq = 0.025378     beta(Y;Z,Z) = beta(Y,Z,Z)
@ B-freq = 0.000000  C-freq = 0.025378     beta(Z;Z,Z) = beta(Z,Z,Z)
@ B-freq = 0.006345  C-freq = 0.025378     beta(X;Z,Z) = beta(X,Z,Z)
@ B-freq = 0.006345  C-freq = 0.025378     beta(Y;Z,Z) = beta(Y,Z,Z)
@ B-freq = 0.006345  C-freq = 0.025378     beta(Z;Z,Z) = beta(Z,Z,Z)
@ B-freq = 0.012689  C-freq = 0.025378     beta(X;Z,Z) = beta(X,Z,Z)
@ B-freq = 0.012689  C-freq = 0.025378     beta(Y;Z,Z) = beta(Y,Z,Z)
@ B-freq = 0.012689  C-freq = 0.025378     beta(Z;Z,Z) = beta(Z,Z,Z)
@ B-freq = 0.019034  C-freq = 0.025378     beta(X;Z,Z) = beta(X,Z,Z)
@ B-freq = 0.019034  C-freq = 0.025378     beta(Y;Z,Z) = beta(Y,Z,Z)
@ B-freq = 0.019034  C-freq = 0.025378     beta(Z;Z,Z) = beta(Z,Z,Z)
@ B-freq = 0.025378  C-freq = 0.025378     beta(X;Z,Z) =     23.56238768
@ B-freq = 0.025378  C-freq = 0.025378     beta(Y;Z,Z) =     45.23310151
@ B-freq = 0.025378  C-freq = 0.025378     beta(Z;Z,Z) =     -0.00000000

  Total CPU  time used in RESPONSE:  8 minutes 41 seconds
  Total wall time used in RESPONSE:  8 minutes 44 seconds


                   .-------------------------------------------.
                   | End of Dynamic Property Section (RESPONS) |
                   `-------------------------------------------'

  Total CPU  time used in DALTON:  9 minutes 25 seconds
  Total wall time used in DALTON:  9 minutes 28 seconds

 
     Date and time (Linux)  : Sat Jul 27 18:29:26 2024
     Host name              : dn006                                   
