

     ************************************************************************
     *************** Dalton - An Electronic Structure Program ***************
     ************************************************************************

    This is output from DALTON release Dalton2020.0 (2020)
         ( Web site: http://daltonprogram.org )

   ----------------------------------------------------------------------------

    NOTE:
     
    Dalton is an experimental code for the evaluation of molecular
    properties using (MC)SCF, DFT, CI, and CC wave functions.
    The authors accept no responsibility for the performance of
    the code or for the correctness of the results.
     
    The code (in whole or part) is provided under a licence and
    is not to be reproduced for further distribution without
    the written permission of the authors or their representatives.
     
    See the home page "http://daltonprogram.org" for further information.
     
    If results obtained with this code are published,
    the appropriate citations would be both of:
     
       K. Aidas, C. Angeli, K. L. Bak, V. Bakken, R. Bast,
       L. Boman, O. Christiansen, R. Cimiraglia, S. Coriani,
       P. Dahle, E. K. Dalskov, U. Ekstroem,
       T. Enevoldsen, J. J. Eriksen, P. Ettenhuber, B. Fernandez,
       L. Ferrighi, H. Fliegl, L. Frediani, K. Hald, A. Halkier,
       C. Haettig, H. Heiberg, T. Helgaker, A. C. Hennum,
       H. Hettema, E. Hjertenaes, S. Hoest, I.-M. Hoeyvik,
       M. F. Iozzi, B. Jansik, H. J. Aa. Jensen, D. Jonsson,
       P. Joergensen, J. Kauczor, S. Kirpekar,
       T. Kjaergaard, W. Klopper, S. Knecht, R. Kobayashi, H. Koch,
       J. Kongsted, A. Krapp, K. Kristensen, A. Ligabue,
       O. B. Lutnaes, J. I. Melo, K. V. Mikkelsen, R. H. Myhre,
       C. Neiss, C. B. Nielsen, P. Norman, J. Olsen,
       J. M. H. Olsen, A. Osted, M. J. Packer, F. Pawlowski,
       T. B. Pedersen, P. F. Provasi, S. Reine, Z. Rinkevicius,
       T. A. Ruden, K. Ruud, V. Rybkin, P. Salek, C. C. M. Samson,
       A. Sanchez de Meras, T. Saue, S. P. A. Sauer,
       B. Schimmelpfennig, K. Sneskov, A. H. Steindal,
       K. O. Sylvester-Hvid, P. R. Taylor, A. M. Teale,
       E. I. Tellgren, D. P. Tew, A. J. Thorvaldsen, L. Thoegersen,
       O. Vahtras, M. A. Watson, D. J. D. Wilson, M. Ziolkowski
       and H. Agren,
       "The Dalton quantum chemistry program system",
       WIREs Comput. Mol. Sci. 2014, 4:269–284 (doi: 10.1002/wcms.1172)
     
    and
     
       Dalton, a molecular electronic structure program,
       Release Dalton2020.0 (2020), see http://daltonprogram.org
   ----------------------------------------------------------------------------

    Authors in alphabetical order (Major contribution(s) in parenthesis):

  Kestutis Aidas,           Vilnius University,           Lithuania   (QM/MM)
  Celestino Angeli,         University of Ferrara,        Italy       (NEVPT2)
  Keld L. Bak,              UNI-C,                        Denmark     (AOSOPPA, non-adiabatic coupling, magnetic properties)
  Vebjoern Bakken,          University of Oslo,           Norway      (DALTON; geometry optimizer, symmetry detection)
  Radovan Bast,             UiT The Arctic U. of Norway,  Norway      (DALTON installation and execution frameworks)
  Pablo Baudin,             University of Valencia,       Spain       (Cholesky excitation energies)
  Linus Boman,              NTNU,                         Norway      (Cholesky decomposition and subsystems)
  Bruno N. Cabral Tenorio,  Technical Univ. of Denmark,   Denmark     (Lanczos-based CC methods)
  Ove Christiansen,         Aarhus University,            Denmark     (CC module)
  Renzo Cimiraglia,         University of Ferrara,        Italy       (NEVPT2)
  Sonia Coriani,            Technical Univ. of Denmark,   Denmark     (CC and RESPONS modules)
  Janusz Cukras,            University of Warsaw,         Poland      (MChD in RESPONS)
  Paal Dahle,               University of Oslo,           Norway      (Parallelization)
  Erik K. Dalskov,          UNI-C,                        Denmark     (SOPPA)
  Thomas Enevoldsen,        Univ. of Southern Denmark,    Denmark     (SOPPA)
  Janus J. Eriksen,         Aarhus University,            Denmark     (Polarizable embedding, TDA)
  Rasmus Faber,             Technical Univ. of Denmark,   Denmark     (Vib.avg. NMR w. SOPPA, parallel AO-SOPPA, CVS-CC and EOMCC)
  Tobias Fahleson,          KTH Stockholm,                Sweden      (Damped cubic response)
  Berta Fernandez,          U. of Santiago de Compostela, Spain       (Doublet spin, ESR in RESPONS)
  Lara Ferrighi,            Aarhus University,            Denmark     (PCM Cubic response)
  Heike Fliegl,             University of Oslo,           Norway      (CCSD(R12))
  Luca Frediani,            UiT The Arctic U. of Norway,  Norway      (PCM)
  Emmanuel Fromager,        Univ. Strasbourg,             France      (MC-srDFT)
  Bin Gao,                  UiT The Arctic U. of Norway,  Norway      (Gen1Int library)
  Andre S. P. Gomes,        CNRS/Universite de Lille,     France      (Frozen density embedding)
  Christof Haettig,         Ruhr-University Bochum,       Germany     (CC module)
  Kasper Hald,              Aarhus University,            Denmark     (CC module)
  Asger Halkier,            Aarhus University,            Denmark     (CC module)
  Frederik Beyer Hansen,    University of Copenhagen,     Denmark     (Parallel AO-SOPPA)
  Erik D. Hedegaard,        Univ. of Southern Denmark,    Denmark     (Polarizable embedding, QM/MM, and MC-srDFT)
  Hanne Heiberg,            University of Oslo,           Norway      (Geometry analysis, selected one-electron integrals)
  Trygve Helgaker,          University of Oslo,           Norway      (DALTON; ABACUS, ERI, DFT modules, London, and much more)
  Alf Christian Hennum,     University of Oslo,           Norway      (Parity violation)
  Hinne Hettema,            University of Auckland,       New Zealand (Quadratic response in RESPONS; SIRIUS supersymmetry)
  Eirik Hjertenaes,         NTNU,                         Norway      (Cholesky decomposition)
  Pi A. B. Haase,           University of Copenhagen,     Denmark     (Triplet AO-SOPPA)
  Maria Francesca Iozzi,    University of Oslo,           Norway      (RPA)
  Christoph Jacob           TU Braunschweig               Germany     (Frozen density embedding)
  Brano Jansik              Technical Univ. of Ostrava    Czech Rep.  (DFT cubic response)
  Hans Joergen Aa. Jensen,  Univ. of Southern Denmark,    Denmark     (DALTON; SIRIUS, RESPONS, ABACUS, MC-srDFT, and much more)
  Dan Jonsson,              UiT The Arctic U. of Norway,  Norway      (Cubic response in RESPONS module)
  Poul Joergensen,          Aarhus University,            Denmark     (RESPONS, ABACUS, and CC modules)
  Maciej Kaminski,          University of Warsaw,         Poland      (CPPh in RESPONS)
  Joanna Kauczor,           Linkoeping University,        Sweden      (Complex polarization propagator (CPP) module)
  Sheela Kirpekar,          Univ. of Southern Denmark,    Denmark     (Mass-velocity & Darwin integrals)
  Erik Kjellgren,           Univ. of Southern Denmark,    Denmark     (MC-srDFT)
  Wim Klopper,              KIT Karlsruhe,                Germany     (R12 code in CC, SIRIUS, and ABACUS modules)
  Stefan Knecht,            ETH Zurich,                   Switzerland (Parallel CI and MCSCF, MC-srDFT)
  Rika Kobayashi,           Australian National Univ.,    Australia   (DIIS in CC, London in MCSCF)
  Henrik Koch,              NTNU,                         Norway      (CC module, Cholesky decomposition)
  Jacob Kongsted,           Univ. of Southern Denmark,    Denmark     (Polarizable embedding, polarizable density embedding, QM/MM)
  Andrea Ligabue,           University of Modena,         Italy       (CTOCD, AOSOPPA)
  Nanna H. List             Univ. of Southern Denmark,    Denmark     (Polarizable embedding)
  Ola B. Lutnaes,           University of Oslo,           Norway      (DFT Hessian)
  Juan I. Melo,             University of Buenos Aires,   Argentina   (LRESC, Relativistic Effects on NMR Shieldings)
  Kurt V. Mikkelsen,        University of Copenhagen,     Denmark     (MC-SCRF and QM/MM)
  Rolf H. Myhre,            NTNU,                         Norway      (Subsystems and CC3)
  Christian Neiss,          Univ. Erlangen-Nuernberg,     Germany     (CCSD(R12))
  Christian B. Nielsen,     University of Copenhagen,     Denmark     (QM/MM)
  Patrick Norman,           KTH Stockholm,                Sweden      (Cubic response and complex frequency response in RESPONS)
  Jeppe Olsen,              Aarhus University,            Denmark     (SIRIUS CI/density modules)
  Jogvan Magnus H. Olsen,   Aarhus University,            Denmark     (Polarizable embedding and polarizable density embedding)
  Anders Osted,             Copenhagen University,        Denmark     (QM/MM)
  Martin J. Packer,         University of Sheffield,      UK          (SOPPA)
  Filip Pawlowski,          Kazimierz Wielki University,  Poland      (CC3)
  Morten N. Pedersen,       Univ. of Southern Denmark,    Denmark     (Polarizable embedding)
  Thomas B. Pedersen,       University of Oslo,           Norway      (Cholesky decomposition)
  Patricio F. Provasi,      University of Northeastern,   Argentina   (Analysis of coupling constants in localized orbitals)
  Peter Reinholdt,          Univ. of Southern Denmark,    Denmark     (Polarizable embedding and polarizable density embedding)
  Zilvinas Rinkevicius,     KTH Stockholm,                Sweden      (open-shell DFT, ESR)
  Elias Rudberg,            KTH Stockholm,                Sweden      (DFT grid and basis info)
  Torgeir A. Ruden,         University of Oslo,           Norway      (Numerical derivatives in ABACUS)
  Kenneth Ruud,             UiT The Arctic U. of Norway,  Norway      (DALTON; ABACUS magnetic properties and much more)
  Pawel Salek,              KTH Stockholm,                Sweden      (DALTON; DFT code)
  Claire C. M. Samson       University of Karlsruhe       Germany     (Boys localization, r12 integrals in ERI)
  Alfredo Sanchez de Meras, University of Valencia,       Spain       (CC module, Cholesky decomposition)
  Trond Saue,               Paul Sabatier University,     France      (direct Fock matrix construction)
  Stephan P. A. Sauer,      University of Copenhagen,     Denmark     (SOPPA(CCSD), SOPPA prop., AOSOPPA, vibrational g-factors)
  Bernd Schimmelpfennig,    Forschungszentrum Karlsruhe,  Germany     (AMFI module)
  Anna K. Schnack-Petersen, University of Copenhagen,     Denmark     (RPA(D) and HRPA(D) properties in AOSOPPA)
  Kristian Sneskov,         Aarhus University,            Denmark     (Polarizable embedding, QM/MM)
  Arnfinn H. Steindal,      UiT The Arctic U. of Norway,  Norway      (parallel QM/MM, polarizable embedding)
  Casper Steinmann,         Aalborg University,           Denmark     (QFIT, polarizable embedding)
  K. O. Sylvester-Hvid,     University of Copenhagen,     Denmark     (MC-SCRF)
  Peter R. Taylor,          VLSCI/Univ. of Melbourne,     Australia   (Symmetry handling ABACUS, integral transformation)
  Andrew M. Teale,          University of Nottingham,     England     (DFT-AC, DFT-D)
  David P. Tew,             University of Bristol,        England     (CCSD(R12))
  Julien Toulouse,          Sorbonne Univ.,               France      (MC-srDFT)
  Olav Vahtras,             KTH Stockholm,                Sweden      (Triplet response, spin-orbit, ESR, TDDFT, open-shell DFT)
  Lucas Visscher,           Vrije Universiteit Amsterdam, Netherlands (Frozen density embedding)
  David J. Wilson,          La Trobe University,          Australia   (DFT Hessian and DFT magnetizabilities)
  Hans Agren,               KTH Stockholm,                Sweden      (SIRIUS module, RESPONS, MC-SCRF solvation)
 --------------------------------------------------------------------------------

     Date and time (Linux)  : Thu Sep  7 21:32:24 2023
     Host name              : sn-mem                                  

 * Work memory size             :    64000000 =  488.28 megabytes.

 * Directories for basis set searches:
   1) /gpfs/projects/rjh/adrian/august_no_symmetry/dalton/hf/H2O/dipole
   2) /gpfs/projects/rjh/adrian/dalton/build/basis


Compilation information
-----------------------

 Who compiled             | ahurtado
 Host                     | sn-mem
 System                   | Linux-3.10.0-1160.24.1.el7.x86_64
 CMake generator          | Unix Makefiles
 Processor                | x86_64
 64-bit integers          | OFF
 MPI                      | ON
 Fortran compiler         | /gpfs/software/intel/oneAPI/2021_4/mpi/2021.4.0/bi
                          | n/mpif90
 Fortran compiler version | GNU Fortran (GCC) 11.2.0
 C compiler               | /gpfs/software/intel/oneAPI/2021_4/mpi/2021.4.0/bi
                          | n/mpicc
 C compiler version       | gcc (GCC) 11.2.0
 C++ compiler             | /gpfs/software/intel/oneAPI/2021_4/mpi/2021.4.0/bi
                          | n/mpicxx
 C++ compiler version     | unknown
 BLAS                     | /gpfs/software/intel/oneAPI/2021_4/mkl/2021.4.0/li
                          | b/intel64/libmkl_gf_lp64.so;/gpfs/software/intel/o
                          | neAPI/2021_4/mkl/2021.4.0/lib/intel64/libmkl_seque
                          | ntial.so;/gpfs/software/intel/oneAPI/2021_4/mkl/20
                          | 21.4.0/lib/intel64/libmkl_core.so;/usr/lib64/libpt
                          | hread.so;/usr/lib64/libm.so
 LAPACK                   | /gpfs/software/intel/oneAPI/2021_4/mkl/2021.4.0/li
                          | b/intel64/libmkl_lapack95_lp64.a;/gpfs/software/in
                          | tel/oneAPI/2021_4/mkl/2021.4.0/lib/intel64/libmkl_
                          | gf_lp64.so
 Static linking           | OFF
 Last Git revision        | 66052b3af5ea7225e31178bf9a8b031913c72190
 Git branch               | (HEAD detached at Dalton2020.0)
 Configuration time       | 2023-01-11 13:33:37.731835

 * MPI parallel run using 5 processes.


   Content of the .dal input file
 ----------------------------------

**DALTON INPUT
.RUN RESPONSE
.DIRECT
**WAVE FUNCTIONS
.HF
**PROPERTIES
**RESPONSE
*QUADRA
.DIPLEN
.FREQUENCIES
5
0.0 0.0198666875 0.039733375 0.0596000625 0.07946675
**END OF DALTON INPUT


   Content of the .mol file
 ----------------------------

BASIS
aug-cc-pCVDZ
blah
blah
Atomtype=2 Angstrom Charge=0 Nosymmmetry
Charge=8 Atoms=1
O_a 0.000000000000 0.000000000000 0.117299997610
Charge=1 Atoms=2
H_a 0.000000000000 0.757199998838 -0.469200001024
H_b 0.000000000000 -0.757199998838 -0.469200001024


       *******************************************************************
       *********** Output from DALTON general input processing ***********
       *******************************************************************

 --------------------------------------------------------------------------------
   Overall default print level:    0
   Print level for DALTON.STAT:    1

    Parallel calculation using MPI
    AO-direct calculation (in sections where implemented)
    HERMIT 1- and 2-electron integral sections will be executed
    "Old" integral transformation used (limited to max 255 basis functions)
    Wave function sections will be executed (SIRIUS module)
    Dynamic molecular response properties section will be executed (RESPONSE module)
 --------------------------------------------------------------------------------


   ****************************************************************************
   *************** Output of molecule and basis set information ***************
   ****************************************************************************


    The two title cards from your ".mol" input:
    ------------------------------------------------------------------------
 1: blah                                                                    
 2: blah                                                                    
    ------------------------------------------------------------------------

  Coordinates are entered in Angstrom and converted to atomic units.
          - Conversion factor : 1 bohr = 0.52917721 A

  Atomic type no.    1
  --------------------
  Nuclear charge:   8.00000
  Number of symmetry independent centers:    1
  Number of basis sets to read;    2
  Basis set file used for this atomic type with Z =   8 :
     "/gpfs/projects/rjh/adrian/dalton/build/basis/aug-cc-pCVDZ"

  Atomic type no.    2
  --------------------
  Nuclear charge:   1.00000
  Number of symmetry independent centers:    2
  Number of basis sets to read;    2
  Basis set file used for this atomic type with Z =   1 :
     "/gpfs/projects/rjh/adrian/dalton/build/basis/aug-cc-pCVDZ"


                         SYMGRP: Point group information
                         -------------------------------

@    Point group: C1 


                                 Isotopic Masses
                                 ---------------

                           O_a        15.994915
                           H_a         1.007825
                           H_b         1.007825

                       Total mass:    18.010565 amu
                       Natural abundance:  99.730 %

 Center-of-mass coordinates (a.u.):    0.000000    0.000000    0.097627
 Center-of-mass coordinates (Angs):    0.000000    0.000000    0.051662


  Atoms and basis sets
  --------------------

  Number of atom types :    2
  Total number of atoms:    3

  Basis set used is "aug-cc-pCVDZ" from the basis set library.

  label    atoms   charge   prim   cont     basis
  ----------------------------------------------------------------------
  O_          1    8.0000    39    27      [11s6p2d|5s4p2d]                                   
  H_          2    1.0000    11     9      [5s2p|3s2p]                                        
  ----------------------------------------------------------------------
  total:      3   10.0000    61    45
  ----------------------------------------------------------------------
  Spherical harmonic basis used.

  Threshold for neglecting AO integrals:  1.00D-12


  Cartesian Coordinates (a.u.)
  ----------------------------

  Total number of coordinates:    9
  O_a     :     1  x   0.0000000000    2  y   0.0000000000    3  z   0.2216648699
  H_a     :     4  x   0.0000000000    5  y   1.4309006196    6  z  -0.8866594998
  H_b     :     7  x   0.0000000000    8  y  -1.4309006196    9  z  -0.8866594998


   Interatomic separations (in Angstrom):
   --------------------------------------

            O_a         H_a         H_b   
            ------      ------      ------
 O_a   :    0.000000
 H_a   :    0.957776    0.000000
 H_b   :    0.957776    1.514400    0.000000


  Max    interatomic separation is    1.5144 Angstrom (    2.8618 Bohr)
  between atoms    3 and    2, "H_b   " and "H_a   ".

  Min HX interatomic separation is    0.9578 Angstrom (    1.8099 Bohr)


  Bond distances (Angstrom):
  --------------------------

                  atom 1     atom 2       distance
                  ------     ------       --------
  bond distance:  H_a        O_a          0.957776
  bond distance:  H_b        O_a          0.957776


  Bond angles (degrees):
  ----------------------

                  atom 1     atom 2     atom 3         angle
                  ------     ------     ------         -----
  bond angle:     H_a        O_a        H_b          104.480




 Principal moments of inertia (u*A**2) and principal axes
 --------------------------------------------------------

   IA       0.615752          0.000000    1.000000    0.000000
   IB       1.155677          0.000000    0.000000    1.000000
   IC       1.771429          1.000000    0.000000    0.000000


 Rotational constants
 --------------------

@    The molecule is planar.

               A                   B                   C

         820751.0438         437301.3971         285294.6081 MHz
           27.377308           14.586804            9.516404 cm-1


@  Nuclear repulsion energy :    9.189533777587 Hartree


                     .---------------------------------------.
                     | Starting in Integral Section (HERMIT) |
                     `---------------------------------------'



 ***************************************************************************************
 ****************** Output from **INTEGRALS input processing (HERMIT) ******************
 ***************************************************************************************


 - Using defaults, no **INTEGRALS input found

 Default print level:        1

 Calculation of one-electron Hamiltonian integrals.

 Center of mass  (bohr):      0.000000000000      0.000000000000      0.097626894688
 Operator center (bohr):      0.000000000000      0.000000000000      0.000000000000
 Gauge origin    (bohr):      0.000000000000      0.000000000000      0.000000000000
 Dipole origin   (bohr):      0.000000000000      0.000000000000      0.000000000000


     ************************************************************************
     ************************** Output from HERINT **************************
     ************************************************************************



                      Nuclear contribution to dipole moments
                      --------------------------------------

                 au               Debye          C m (/(10**-30)

      x      0.00000000         0.00000000         0.00000000
      y      0.00000000         0.00000000         0.00000000
      z     -0.00000004        -0.00000010        -0.00000034


  Total CPU  time used in HERMIT:   0.03 seconds
  Total wall time used in HERMIT:   0.03 seconds


                        .----------------------------------.
                        | End of Integral Section (HERMIT) |
                        `----------------------------------'



                   .--------------------------------------------.
                   | Starting in Wave Function Section (SIRIUS) |
                   `--------------------------------------------'


 *** Output from Huckel module :

     Using EWMO model:          T
     Using EHT  model:          F
     Number of Huckel orbitals each symmetry:    7

 EWMO - Energy Weighted Maximum Overlap - is a Huckel type method,
        which normally is better than Extended Huckel Theory.
 Reference: Linderberg and Ohrn, Propagators in Quantum Chemistry (Wiley, 1973)

 Huckel EWMO eigenvalues for symmetry :  1
          -20.684959      -1.611341      -0.778168      -0.688462      -0.616200
           -0.232449      -0.168322

 **********************************************************************
 *SIRIUS* a direct, restricted step, second order MCSCF program       *
 **********************************************************************

 
     Date and time (Linux)  : Thu Sep  7 21:32:24 2023
     Host name              : sn-mem                                  

 Title lines from ".mol" input file:
     blah                                                                    
     blah                                                                    

 Print level on unit LUPRI =   2 is   0
 Print level on unit LUW4  =   2 is   5

@    Restricted, closed shell Hartree-Fock calculation.

@    Time-dependent Hartree-Fock calculation (random phase approximation).
 Fock matrices are calculated directly and in parallel without use of integrals on disk.

 Initial molecular orbitals are obtained according to
 ".MOSTART EWMO  " input option

     Wave function specification
     ============================
@    Wave function type        --- HF ---
@    Number of closed shell electrons          10
@    Number of electrons in active shells       0
@    Total charge of the molecule               0

@    Spin multiplicity and 2 M_S                1         0
@    Total number of symmetries                 1 (point group: C1 )
@    Reference state symmetry                   1 (irrep name : A  )

     Orbital specifications
     ======================
@    Abelian symmetry species          All |    1
@                                          |  A  
                                       --- |  ---
@    Occupied SCF orbitals               5 |    5
@    Secondary orbitals                 40 |   40
@    Total number of orbitals           45 |   45
@    Number of basis functions          45 |   45

     Optimization information
     ========================
@    Number of configurations                 1
@    Number of orbital rotations            200
     ------------------------------------------
@    Total number of variables              201

     Maximum number of Fock   iterations      0
     Maximum number of DIIS   iterations     60
     Maximum number of QC-SCF iterations     60
     Threshold for SCF convergence     1.00D-05


 ***********************************************
 ***** DIIS acceleration of SCF iterations *****
 ***********************************************

 C1-DIIS algorithm; max error vectors =    8

 Iter      Total energy        Error norm    Delta(E)  DIIS dim.
 -----------------------------------------------------------------------------
   1  Screening settings (-IFTHRS, JTDIIS, DIFDEN, times)   -7    1    T  2.59D-02  2.60D-02
@  1    -75.8574800783        1.79080D+00   -7.59D+01    1
      Virial theorem: -V/T =      1.996916
@    MULPOP   O_a    -0.50; H_a     0.25; H_b     0.25; 
   1  Level shift: doubly occupied orbital energies shifted by -2.00D-01
 -----------------------------------------------------------------------------
   2  Screening settings (-IFTHRS, JTDIIS, DIFDEN, times)   -7    2    T  1.17D-02  1.20D-02
@  2    -76.0303884320        3.96780D-01   -1.73D-01    2
      Virial theorem: -V/T =      2.003912
@    MULPOP   O_a    -0.27; H_a     0.13; H_b     0.13; 
   2  Level shift: doubly occupied orbital energies shifted by -5.00D-02
 -----------------------------------------------------------------------------
   3  Screening settings (-IFTHRS, JTDIIS, DIFDEN, times)   -7    3    T  1.16D-02  1.20D-02
@  3    -76.0403381910        1.12090D-01   -9.95D-03    3
      Virial theorem: -V/T =      2.000407
@    MULPOP   O_a    -0.30; H_a     0.15; H_b     0.15; 
   3  Level shift: doubly occupied orbital energies shifted by -2.50D-02
 -----------------------------------------------------------------------------
   4  Screening settings (-IFTHRS, JTDIIS, DIFDEN, times)  -11    4    F  1.32D-02  1.30D-02
@  4    -76.0415087184        5.27145D-02   -1.17D-03    4
      Virial theorem: -V/T =      2.002324
@    MULPOP   O_a    -0.30; H_a     0.15; H_b     0.15; 
   4  Level shift: doubly occupied orbital energies shifted by -1.25D-02
 -----------------------------------------------------------------------------
   5  Screening settings (-IFTHRS, JTDIIS, DIFDEN, times)  -11    5    T  1.23D-02  1.20D-02
@  5    -76.0416674793        1.07016D-02   -1.59D-04    5
      Virial theorem: -V/T =      2.001366
@    MULPOP   O_a    -0.31; H_a     0.15; H_b     0.15; 
 -----------------------------------------------------------------------------
   6  Screening settings (-IFTHRS, JTDIIS, DIFDEN, times)  -11    6    T  1.18D-02  1.20D-02
@  6    -76.0416893717        2.44072D-03   -2.19D-05    6
      Virial theorem: -V/T =      2.001443
@    MULPOP   O_a    -0.31; H_a     0.16; H_b     0.16; 
 -----------------------------------------------------------------------------
   7  Screening settings (-IFTHRS, JTDIIS, DIFDEN, times)  -11    7    T  1.18D-02  1.20D-02
@  7    -76.0416905507        4.17280D-04   -1.18D-06    7
      Virial theorem: -V/T =      2.001462
@    MULPOP   O_a    -0.31; H_a     0.16; H_b     0.16; 
 -----------------------------------------------------------------------------
   8  Screening settings (-IFTHRS, JTDIIS, DIFDEN, times)  -11    8    T  1.14D-02  1.10D-02
@  8    -76.0416905787        5.61125D-05   -2.80D-08    8
      Virial theorem: -V/T =      2.001465
@    MULPOP   O_a    -0.31; H_a     0.16; H_b     0.16; 
 -----------------------------------------------------------------------------
   9  Screening settings (-IFTHRS, JTDIIS, DIFDEN, times)  -11    9    T  1.19D-02  1.20D-02
@  9    -76.0416905791        8.32037D-06   -4.80D-10    8

@ *** DIIS converged in   9 iterations !
@     Converged SCF energy, gradient:    -76.041690579134    8.32D-06
    - total time used in SIRFCK :              0.00 seconds


 *** SCF orbital energy analysis ***

 Only the 20 lowest virtual orbital energies printed in each symmetry.

 Number of electrons :   10
 Orbital occupations :    5

 Sym       Hartree-Fock orbital energies

1 A     -20.57638032    -1.35623643    -0.71907827    -0.58582525    -0.50957469
          0.03542431     0.05792049     0.17384096     0.19669556     0.22256421
          0.23145827     0.29062483     0.33140372     0.38579593     0.40389991
          0.43362719     0.53916149     0.64653104     0.65807308     0.81154424
          0.92815494     1.10096618     1.11525202     1.14883909     1.30447190

    E(LUMO) :     0.03542431 au (symmetry 1)
  - E(HOMO) :    -0.50957469 au (symmetry 1)
  ------------------------------------------
    gap     :     0.54499900 au

 --- Writing SIRIFC interface file

 CPU and wall time for SCF :       0.133       0.135


                       .-----------------------------------.
                       | --- Final results from SIRIUS --- |
                       `-----------------------------------'


@    Spin multiplicity:           1
@    Spatial symmetry:            1 ( irrep  A   in C1  )
@    Total charge of molecule:    0

@    Final HF energy:             -76.041690579134                 
@    Nuclear repulsion:             9.189533777587
@    Electronic energy:           -85.231224356721

@    Final gradient norm:           0.000008320368

 
     Date and time (Linux)  : Thu Sep  7 21:32:25 2023
     Host name              : sn-mem                                  

File label for MO orbitals:   7Sep23   FOCKDIIS

 (Only coefficients > 0.0100 are printed.)

 Molecular orbitals for symmetry species 1  (A  )
 ------------------------------------------------

    Orbital         1        2        3        4        5        6        7
   1 O_a :1s    -1.0011   0.0044  -0.0000  -0.0014  -0.0000   0.0033   0.0000
   2 O_a :1s    -0.0044  -0.8792  -0.0000  -0.2987  -0.0000  -0.1022   0.0000
   3 O_a :1s     0.0073   0.1251   0.0000  -0.1478  -0.0000  -0.1663  -0.0000
   5 O_a :1s     0.0044  -0.0613   0.0000  -0.0753  -0.0000  -1.5670  -0.0000
   6 O_a :2px   -0.0000  -0.0000   0.0000  -0.0000   0.9151  -0.0000   0.0000
   7 O_a :2py    0.0000   0.0000  -0.7271  -0.0000   0.0000   0.0000   0.0961
   8 O_a :2pz    0.0021   0.1141  -0.0000  -0.7989  -0.0000   0.0859  -0.0000
   9 O_a :2px    0.0000   0.0000  -0.0000   0.0000   0.0293   0.0000  -0.0000
  10 O_a :2py   -0.0000  -0.0000   0.1412   0.0000  -0.0000   0.0000   0.0945
  11 O_a :2pz   -0.0024  -0.0702  -0.0000   0.0433   0.0000   0.0929  -0.0000
  15 O_a :2px   -0.0000  -0.0000   0.0000  -0.0000   0.0688  -0.0000   0.0000
  16 O_a :2py   -0.0000  -0.0000  -0.0197   0.0000  -0.0000   0.0000   0.8309
  17 O_a :2pz   -0.0006   0.0119  -0.0000  -0.0392  -0.0000   0.2146   0.0000
  19 O_a :3d1-   0.0000   0.0000   0.0286  -0.0000   0.0000  -0.0000  -0.0011
  20 O_a :3d0    0.0000  -0.0028  -0.0000   0.0146   0.0000  -0.0026   0.0000
  21 O_a :3d1+   0.0000   0.0000  -0.0000   0.0000  -0.0139   0.0000  -0.0000
  24 O_a :3d1-   0.0000  -0.0000  -0.0311   0.0000   0.0000  -0.0000  -0.0186
  25 O_a :3d0   -0.0000   0.0057  -0.0000   0.0162  -0.0000   0.0016   0.0000
  26 O_a :3d1+  -0.0000  -0.0000   0.0000  -0.0000  -0.0193  -0.0000   0.0000
  27 O_a :3d2+  -0.0003  -0.0195  -0.0000   0.0114   0.0000   0.0105   0.0000
  28 H_a :1s    -0.0006  -0.3498  -0.5955   0.3607   0.0000   0.0329   0.0016
  29 H_a :1s    -0.0032   0.2036   0.2190  -0.1233  -0.0000   0.4654  -0.5522
  30 H_a :1s    -0.0003   0.0022   0.0049   0.0035   0.0000   0.8374  -2.9679
  31 H_a :2px    0.0000   0.0000  -0.0000   0.0000   0.0262   0.0000  -0.0000
  32 H_a :2py   -0.0003   0.0369   0.0262  -0.0310  -0.0000   0.0043  -0.0006
  33 H_a :2pz    0.0003  -0.0224  -0.0348   0.0010   0.0000  -0.0022   0.0042
  34 H_a :2px   -0.0000  -0.0000   0.0000  -0.0000   0.0157  -0.0000   0.0000
  35 H_a :2py    0.0012  -0.0055   0.0040  -0.0018  -0.0000  -0.0839   0.1026
  36 H_a :2pz   -0.0010   0.0085  -0.0008  -0.0132  -0.0000   0.0781  -0.1292
  37 H_b :1s    -0.0006  -0.3498   0.5955   0.3607   0.0000   0.0329  -0.0016
  38 H_b :1s    -0.0032   0.2036  -0.2190  -0.1233  -0.0000   0.4654   0.5522
  39 H_b :1s    -0.0003   0.0022  -0.0049   0.0035   0.0000   0.8374   2.9679
  40 H_b :2px    0.0000   0.0000  -0.0000   0.0000   0.0262   0.0000  -0.0000
  41 H_b :2py    0.0003  -0.0369   0.0262   0.0310   0.0000  -0.0043  -0.0006
  42 H_b :2pz    0.0003  -0.0224   0.0348   0.0010   0.0000  -0.0022  -0.0042
  43 H_b :2px   -0.0000  -0.0000   0.0000  -0.0000   0.0157  -0.0000   0.0000
  44 H_b :2py   -0.0012   0.0055   0.0040   0.0018   0.0000   0.0839   0.1026
  45 H_b :2pz   -0.0010   0.0085   0.0008  -0.0132  -0.0000   0.0781   0.1292

    Orbital         8        9       10       11       12       13       14
   1 O_a :1s     0.0265   0.0000  -0.0210  -0.0000   0.0000   0.0110  -0.0000
   2 O_a :1s     0.1692   0.0000  -0.3675  -0.0000   0.0000   0.0175  -0.0000
   3 O_a :1s    -0.4800   0.0000   0.2245   0.0000  -0.0000  -0.2484   0.0000
   5 O_a :1s    -4.1317   0.0000   2.8736   0.0000  -0.0000  -4.3585  -0.0000
   6 O_a :2px    0.0000  -0.2536  -0.0000  -0.0000  -0.0000  -0.0000  -0.0000
   7 O_a :2py    0.0000  -0.0000  -0.0000  -0.2448  -0.3245   0.0000  -0.0000
   8 O_a :2pz   -0.2576   0.0000   0.0761  -0.0000   0.0000   0.1323  -0.0000
   9 O_a :2px   -0.0000  -0.1291   0.0000   0.0000   0.0000   0.0000   0.0000
  10 O_a :2py    0.0000   0.0000  -0.0000   0.3734  -0.1213   0.0000   0.0000
  11 O_a :2pz    0.1161  -0.0000  -0.2100  -0.0000   0.0000   0.1764  -0.0000
  15 O_a :2px    0.0000   1.4427  -0.0000  -0.0000  -0.0000  -0.0000   0.0000
  16 O_a :2py    0.0000   0.0000  -0.0000   3.1097  -0.9058   0.0000  -0.0000
  17 O_a :2pz    1.9208   0.0000   0.5016  -0.0000   0.0000   0.5936  -0.0000
  18 O_a :3d2-  -0.0000   0.0000   0.0000   0.0000   0.0000   0.0000  -0.0394
  19 O_a :3d1-  -0.0000  -0.0000   0.0000   0.0086  -0.0161  -0.0000  -0.0000
  20 O_a :3d0    0.0114  -0.0000   0.0077   0.0000  -0.0000  -0.0248  -0.0000
  21 O_a :3d1+  -0.0000   0.0172   0.0000   0.0000   0.0000   0.0000   0.0000
  22 O_a :3d2+  -0.0027  -0.0000  -0.0037   0.0000  -0.0000  -0.0248  -0.0000
  23 O_a :3d2-   0.0000  -0.0000  -0.0000  -0.0000  -0.0000  -0.0000   0.1308
  24 O_a :3d1-  -0.0000  -0.0000   0.0000  -0.0980   0.0714  -0.0000  -0.0000
  25 O_a :3d0   -0.0397   0.0000  -0.0424   0.0000  -0.0000   0.0866  -0.0000
  26 O_a :3d1+   0.0000  -0.0583  -0.0000  -0.0000  -0.0000  -0.0000  -0.0000
  27 O_a :3d2+   0.0490  -0.0000  -0.0317  -0.0000   0.0000   0.1049  -0.0000
  28 H_a :1s     0.0275  -0.0000   0.0682  -0.1352   0.2170   0.1936   0.0000
  29 H_a :1s     1.7750   0.0000  -0.5013  -2.6040   0.8617   2.2648  -0.0000
  30 H_a :1s     0.6272  -0.0000  -0.6775  -2.7040  -0.2986   0.2539   0.0000
  32 H_a :2py   -0.0350   0.0000   0.0203   0.0386  -0.0137  -0.0097  -0.0000
  33 H_a :2pz    0.0243  -0.0000  -0.0116  -0.0220  -0.0004   0.0299   0.0000
  34 H_a :2px    0.0000  -0.2834  -0.0000  -0.0000  -0.0000  -0.0000  -1.1408
  35 H_a :2py   -0.3332   0.0000   0.4315   0.5924   0.4349   0.3735  -0.0000
  36 H_a :2pz    0.1549   0.0000  -0.4841  -0.5590  -0.4834   0.4656   0.0000
  37 H_b :1s     0.0275  -0.0000   0.0682   0.1352  -0.2170   0.1936   0.0000
  38 H_b :1s     1.7750   0.0000  -0.5013   2.6040  -0.8617   2.2648   0.0000
  39 H_b :1s     0.6272  -0.0000  -0.6775   2.7040   0.2986   0.2539  -0.0000
  41 H_b :2py    0.0350  -0.0000  -0.0203   0.0386  -0.0137   0.0097   0.0000
  42 H_b :2pz    0.0243  -0.0000  -0.0116   0.0220   0.0004   0.0299   0.0000
  43 H_b :2px    0.0000  -0.2834  -0.0000  -0.0000  -0.0000  -0.0000   1.1408
  44 H_b :2py    0.3332  -0.0000  -0.4315   0.5924   0.4349  -0.3735   0.0000
  45 H_b :2pz    0.1549   0.0000  -0.4841   0.5590   0.4834   0.4656   0.0000

    Orbital        15
   2 O_a :1s     0.0304
   5 O_a :1s    -4.3991
   8 O_a :2pz    0.2742
  11 O_a :2pz    0.6536
  17 O_a :2pz    1.8238
  20 O_a :3d0    0.0197
  22 O_a :3d2+   0.0103
  25 O_a :3d0   -0.1047
  27 O_a :3d2+  -0.0214
  28 H_a :1s     0.1045
  29 H_a :1s     2.2925
  30 H_a :1s     0.2859
  32 H_a :2py   -0.0490
  35 H_a :2py   -0.3487
  36 H_a :2pz   -0.7026
  37 H_b :1s     0.1045
  38 H_b :1s     2.2925
  39 H_b :1s     0.2859
  41 H_b :2py    0.0490
  44 H_b :2py    0.3487
  45 H_b :2pz   -0.7026

  Total CPU  time used in SIRIUS :   0.14 seconds
  Total wall time used in SIRIUS :   0.15 seconds

 
     Date and time (Linux)  : Thu Sep  7 21:32:25 2023
     Host name              : sn-mem                                  


                     .---------------------------------------.
                     | End of Wave Function Section (SIRIUS) |
                     `---------------------------------------'



                 .------------------------------------------------.
                 | Starting in Dynamic Property Section (RESPONS) |
                 `------------------------------------------------'


 ----------------------------------------------------------------------------------------
  RESPONSE  -  an MCSCF, MC-srDFT, DFT, SOPPA and SOPPA-srDFT response property program
 ----------------------------------------------------------------------------------------


 -------- OUTPUT FROM RESPONSE INPUT PROCESSING --------




 Quadratic Response calculation
 ------------------------------

 First hyperpolarizability calculation : HYPCAL= T

 Spin of operator A , ISPINA=    0
 Spin of operator B , ISPINB=    0
 Spin of operator C , ISPINC=    0

  5 B-frequencies  0.000000D+00  1.986669D-02  3.973338D-02  5.960006D-02  7.946675D-02
  5 C-frequencies  0.000000D+00  1.986669D-02  3.973338D-02  5.960006D-02  7.946675D-02


 Print level                                    : IPRHYP =   2
 Maximum number of iterations in lin.rsp. solver: MAXITL =  60
 Threshold for convergence of linear resp. eq.s : THCLR  = 1.000D-03
 Maximum iterations in optimal orbital algorithm: MAXITO =   5
 Direct one-index transformation                : DIROIT = T

    3 A OPERATORS OF SYMMETRY NO:    1 AND LABELS:

          XDIPLEN 
          YDIPLEN 
          ZDIPLEN 

    3 B OPERATORS OF SYMMETRY NO:    1 AND LABELS:

          XDIPLEN 
          YDIPLEN 
          ZDIPLEN 

    3 C OPERATORS OF SYMMETRY NO:    1 AND LABELS:

          XDIPLEN 
          YDIPLEN 
          ZDIPLEN 


   SCF energy         :      -76.041690579134226
 -- inactive part     :      -85.231224356721071
 -- nuclear repulsion :        9.189533777586849


                     ***************************************
                     *** RHF response calculation (TDHF) ***
                     ***************************************



 Linear response calculations for quadratic response
 - singlet property operator of symmetry    1  ( A  )


 Perturbation symmetry.     KSYMOP:           1
 Perturbation spin symmetry.TRPLET:           F
 Orbital variables.         KZWOPT:         200
 Configuration variables.   KZCONF:           0
 Total number of variables. KZVAR :         200


 QRLRVE -- linear response calculation for symmetry  1  ( A  )
 QRLRVE -- operator label : XDIPLEN 
 QRLRVE -- operator spin  :   0
 QRLRVE -- frequencies :  0.000000  0.019867  0.039733  0.059600  0.079467
                          0.099333  0.119200  0.139067  0.158934



 ---  SOLVING SETS OF LINEAR EQUATIONS FOR LINEAR RESPONSE PROPERTIES ---

 Operator symmetry = 1  ( A  ); triplet =   F


 ** RSPCTL MICROITERATION NUMBER    1

       No.  Residual tot.,    conf., and orb.    Bnorm      Frequency 
      ----------------------------------------------------------------
         1    6.86328D-01  0.00D+00  6.86D-01  2.26D+00    0.00000D+00
         2    6.87293D-01  0.00D+00  6.87D-01  2.26D+00    1.98667D-02
         3    6.90235D-01  0.00D+00  6.90D-01  2.28D+00    3.97334D-02
         4    6.95302D-01  0.00D+00  6.95D-01  2.32D+00    5.96001D-02
         5    7.02765D-01  0.00D+00  7.03D-01  2.37D+00    7.94668D-02
         6    7.13057D-01  0.00D+00  7.13D-01  2.45D+00    9.93334D-02
         7    7.26844D-01  0.00D+00  7.27D-01  2.54D+00    1.19200D-01
         8    7.45153D-01  0.00D+00  7.45D-01  2.67D+00    1.39067D-01
         9    7.69597D-01  0.00D+00  7.70D-01  2.83D+00    1.58934D-01

 ** RSPCTL MICROITERATION NUMBER    2

       No.  Residual tot.,    conf., and orb.    Bnorm      Frequency 
      ----------------------------------------------------------------
         1    5.77157D-02  0.00D+00  5.77D-02  2.31D+00    0.00000D+00
         2    5.78559D-02  0.00D+00  5.79D-02  2.32D+00    1.98667D-02
         3    5.82869D-02  0.00D+00  5.83D-02  2.34D+00    3.97334D-02
         4    5.90420D-02  0.00D+00  5.90D-02  2.38D+00    5.96001D-02
         5    6.01822D-02  0.00D+00  6.02D-02  2.44D+00    7.94668D-02
         6    6.18064D-02  0.00D+00  6.18D-02  2.52D+00    9.93334D-02
         7    6.40693D-02  0.00D+00  6.41D-02  2.63D+00    1.19200D-01
         8    6.72123D-02  0.00D+00  6.72D-02  2.77D+00    1.39067D-01
         9    7.16184D-02  0.00D+00  7.16D-02  2.96D+00    1.58934D-01

 ** RSPCTL MICROITERATION NUMBER    3

       No.  Residual tot.,    conf., and orb.    Bnorm      Frequency 
      ----------------------------------------------------------------
         1    4.52571D-03  0.00D+00  4.53D-03  2.31D+00    0.00000D+00
         2    4.60665D-03  0.00D+00  4.61D-03  2.32D+00    1.98667D-02
         3    4.85103D-03  0.00D+00  4.85D-03  2.34D+00    3.97334D-02
         4    5.26475D-03  0.00D+00  5.26D-03  2.38D+00    5.96001D-02
         5    5.86139D-03  0.00D+00  5.86D-03  2.44D+00    7.94668D-02
         6    6.66690D-03  0.00D+00  6.67D-03  2.52D+00    9.93334D-02
         7    7.72595D-03  0.00D+00  7.73D-03  2.63D+00    1.19200D-01
         8    9.11150D-03  0.00D+00  9.11D-03  2.77D+00    1.39067D-01
         9    1.09411D-02  0.00D+00  1.09D-02  2.96D+00    1.58934D-01

 ** RSPCTL MICROITERATION NUMBER    4

       No.  Residual tot.,    conf., and orb.    Bnorm      Frequency 
      ----------------------------------------------------------------
         1    5.49599D-04  0.00D+00  5.50D-04  2.31D+00    0.00000D+00
         2    5.57869D-04  0.00D+00  5.58D-04  2.32D+00    1.98667D-02
         3    5.83010D-04  0.00D+00  5.83D-04  2.34D+00    3.97334D-02
         4    6.26106D-04  0.00D+00  6.26D-04  2.38D+00    5.96001D-02
         5    6.89251D-04  0.00D+00  6.89D-04  2.44D+00    7.94668D-02
         6    7.76005D-04  0.00D+00  7.76D-04  2.52D+00    9.93334D-02
         7    8.92105D-04  0.00D+00  8.92D-04  2.63D+00    1.19200D-01
         8    1.04664D-03  0.00D+00  1.05D-03  2.77D+00    1.39067D-01
         9    1.25411D-03  0.00D+00  1.25D-03  2.96D+00    1.58934D-01

 *** THE REQUESTED    9 SOLUTION VECTORS CONVERGED

 Convergence of RSP solution vectors, threshold = 1.00D-03
 ---------------------------------------------------------------
 (dimension of paired reduced space:   72)
 RSP solution vector no.    1; norm of residual   2.38D-04
 RSP solution vector no.    2; norm of residual   2.40D-04
 RSP solution vector no.    3; norm of residual   2.49D-04
 RSP solution vector no.    4; norm of residual   2.63D-04
 RSP solution vector no.    5; norm of residual   2.82D-04
 RSP solution vector no.    6; norm of residual   3.08D-04
 RSP solution vector no.    7; norm of residual   3.40D-04
 RSP solution vector no.    8; norm of residual   3.78D-04
 RSP solution vector no.    9; norm of residual   4.24D-04

 *** RSPCTL MICROITERATIONS CONVERGED

@ QRLRVE: SINGLET SOLUTION FOR SYMMETRY    1  ( A  )    LABEL   XDIPLEN     FREQUENCY   0.000000D+00

@ QRLRVE:  << XDIPLEN  ; XDIPLEN  >> (   0.00000):     7.32217646874    

@ QRLRVE:  << YDIPLEN  ; XDIPLEN  >> (   0.00000):    4.733807102079E-16

@ QRLRVE:  << ZDIPLEN  ; XDIPLEN  >> (   0.00000):    3.893834413840E-16

@ QRLRVE: SINGLET SOLUTION FOR SYMMETRY    1  ( A  )    LABEL   XDIPLEN     FREQUENCY   0.198667D-01

@ QRLRVE:  << XDIPLEN  ; XDIPLEN  >> (   0.01987):     7.33155837947    

@ QRLRVE:  << YDIPLEN  ; XDIPLEN  >> (   0.01987):    4.754364020595E-16

@ QRLRVE:  << ZDIPLEN  ; XDIPLEN  >> (   0.01987):    3.955447459336E-16

@ QRLRVE: SINGLET SOLUTION FOR SYMMETRY    1  ( A  )    LABEL   XDIPLEN     FREQUENCY   0.397334D-01

@ QRLRVE:  << XDIPLEN  ; XDIPLEN  >> (   0.03973):     7.36002030741    

@ QRLRVE:  << YDIPLEN  ; XDIPLEN  >> (   0.03973):    4.817053707201E-16

@ QRLRVE:  << ZDIPLEN  ; XDIPLEN  >> (   0.03973):    4.144199723625E-16

@ QRLRVE: SINGLET SOLUTION FOR SYMMETRY    1  ( A  )    LABEL   XDIPLEN     FREQUENCY   0.596001D-01

@ QRLRVE:  << XDIPLEN  ; XDIPLEN  >> (   0.05960):     7.40854598534    

@ QRLRVE:  << YDIPLEN  ; XDIPLEN  >> (   0.05960):    4.925059187701E-16

@ QRLRVE:  << ZDIPLEN  ; XDIPLEN  >> (   0.05960):    4.472376848244E-16

@ QRLRVE: SINGLET SOLUTION FOR SYMMETRY    1  ( A  )    LABEL   XDIPLEN     FREQUENCY   0.794668D-01

@ QRLRVE:  << XDIPLEN  ; XDIPLEN  >> (   0.07947):     7.47890014208    

@ QRLRVE:  << YDIPLEN  ; XDIPLEN  >> (   0.07947):    5.084136040543E-16

@ QRLRVE:  << ZDIPLEN  ; XDIPLEN  >> (   0.07947):    4.962417386371E-16

@ QRLRVE: SINGLET SOLUTION FOR SYMMETRY    1  ( A  )    LABEL   XDIPLEN     FREQUENCY   0.993334D-01

@ QRLRVE:  << XDIPLEN  ; XDIPLEN  >> (   0.09933):     7.57384745525    

@ QRLRVE:  << YDIPLEN  ; XDIPLEN  >> (   0.09933):    5.303404027759E-16

@ QRLRVE:  << ZDIPLEN  ; XDIPLEN  >> (   0.09933):    5.650411769780E-16

@ QRLRVE: SINGLET SOLUTION FOR SYMMETRY    1  ( A  )    LABEL   XDIPLEN     FREQUENCY   0.119200D+00

@ QRLRVE:  << XDIPLEN  ; XDIPLEN  >> (   0.11920):     7.69753454300    

@ QRLRVE:  << YDIPLEN  ; XDIPLEN  >> (   0.11920):    5.596736071119E-16

@ QRLRVE:  << ZDIPLEN  ; XDIPLEN  >> (   0.11920):    6.592363314970E-16

@ QRLRVE: SINGLET SOLUTION FOR SYMMETRY    1  ( A  )    LABEL   XDIPLEN     FREQUENCY   0.139067D+00

@ QRLRVE:  << XDIPLEN  ; XDIPLEN  >> (   0.13907):     7.85614946420    

@ QRLRVE:  << YDIPLEN  ; XDIPLEN  >> (   0.13907):    5.985171686467E-16

@ QRLRVE:  << ZDIPLEN  ; XDIPLEN  >> (   0.13907):    7.875333396516E-16

@ QRLRVE: SINGLET SOLUTION FOR SYMMETRY    1  ( A  )    LABEL   XDIPLEN     FREQUENCY   0.158934D+00

@ QRLRVE:  << XDIPLEN  ; XDIPLEN  >> (   0.15893):     8.05909168974    

@ QRLRVE:  << YDIPLEN  ; XDIPLEN  >> (   0.15893):    6.501226338637E-16

@ QRLRVE:  << ZDIPLEN  ; XDIPLEN  >> (   0.15893):    9.637895796389E-16


 QRLRVE -- linear response calculation for symmetry  1  ( A  )
 QRLRVE -- operator label : YDIPLEN 
 QRLRVE -- operator spin  :   0
 QRLRVE -- frequencies :  0.000000  0.019867  0.039733  0.059600  0.079467
                          0.099333  0.119200  0.139067  0.158934



 ---  SOLVING SETS OF LINEAR EQUATIONS FOR LINEAR RESPONSE PROPERTIES ---

 Operator symmetry = 1  ( A  ); triplet =   F


 ** RSPCTL MICROITERATION NUMBER    1

       No.  Residual tot.,    conf., and orb.    Bnorm      Frequency 
      ----------------------------------------------------------------
         1    8.51407D-01  0.00D+00  8.51D-01  2.29D+00    0.00000D+00
         2    8.52105D-01  0.00D+00  8.52D-01  2.30D+00    1.98667D-02
         3    8.54208D-01  0.00D+00  8.54D-01  2.31D+00    3.97334D-02
         4    8.57746D-01  0.00D+00  8.58D-01  2.33D+00    5.96001D-02
         5    8.62769D-01  0.00D+00  8.63D-01  2.35D+00    7.94668D-02
         6    8.69351D-01  0.00D+00  8.69D-01  2.39D+00    9.93334D-02
         7    8.77592D-01  0.00D+00  8.78D-01  2.43D+00    1.19200D-01
         8    8.87621D-01  0.00D+00  8.88D-01  2.48D+00    1.39067D-01
         9    8.99604D-01  0.00D+00  9.00D-01  2.54D+00    1.58934D-01

 ** RSPCTL MICROITERATION NUMBER    2

       No.  Residual tot.,    conf., and orb.    Bnorm      Frequency 
      ----------------------------------------------------------------
         1    9.49495D-02  0.00D+00  9.49D-02  2.38D+00    0.00000D+00
         2    9.51284D-02  0.00D+00  9.51D-02  2.38D+00    1.98667D-02
         3    9.56691D-02  0.00D+00  9.57D-02  2.39D+00    3.97334D-02
         4    9.65841D-02  0.00D+00  9.66D-02  2.41D+00    5.96001D-02
         5    9.78947D-02  0.00D+00  9.79D-02  2.44D+00    7.94668D-02
         6    9.96325D-02  0.00D+00  9.96D-02  2.48D+00    9.93334D-02
         7    1.01841D-01  0.00D+00  1.02D-01  2.53D+00    1.19200D-01
         8    1.04578D-01  0.00D+00  1.05D-01  2.58D+00    1.39067D-01
         9    1.07921D-01  0.00D+00  1.08D-01  2.65D+00    1.58934D-01

 ** RSPCTL MICROITERATION NUMBER    3

       No.  Residual tot.,    conf., and orb.    Bnorm      Frequency 
      ----------------------------------------------------------------
         1    1.16082D-02  0.00D+00  1.16D-02  2.38D+00    0.00000D+00
         2    1.16408D-02  0.00D+00  1.16D-02  2.38D+00    1.98667D-02
         3    1.17393D-02  0.00D+00  1.17D-02  2.40D+00    3.97334D-02
         4    1.19057D-02  0.00D+00  1.19D-02  2.42D+00    5.96001D-02
         5    1.21435D-02  0.00D+00  1.21D-02  2.44D+00    7.94668D-02
         6    1.24577D-02  0.00D+00  1.25D-02  2.48D+00    9.93334D-02
         7    1.28554D-02  0.00D+00  1.29D-02  2.53D+00    1.19200D-01
         8    1.33455D-02  0.00D+00  1.33D-02  2.58D+00    1.39067D-01
         9    1.39400D-02  0.00D+00  1.39D-02  2.65D+00    1.58934D-01

 ** RSPCTL MICROITERATION NUMBER    4

       No.  Residual tot.,    conf., and orb.    Bnorm      Frequency 
      ----------------------------------------------------------------
         1    1.25121D-03  0.00D+00  1.25D-03  2.38D+00    0.00000D+00
         2    1.25698D-03  0.00D+00  1.26D-03  2.38D+00    1.98667D-02
         3    1.27445D-03  0.00D+00  1.27D-03  2.40D+00    3.97334D-02
         4    1.30414D-03  0.00D+00  1.30D-03  2.42D+00    5.96001D-02
         5    1.34694D-03  0.00D+00  1.35D-03  2.44D+00    7.94668D-02
         6    1.40416D-03  0.00D+00  1.40D-03  2.48D+00    9.93334D-02
         7    1.47762D-03  0.00D+00  1.48D-03  2.53D+00    1.19200D-01
         8    1.56978D-03  0.00D+00  1.57D-03  2.58D+00    1.39067D-01
         9    1.68389D-03  0.00D+00  1.68D-03  2.65D+00    1.58934D-01

 *** THE REQUESTED    9 SOLUTION VECTORS CONVERGED

 Convergence of RSP solution vectors, threshold = 1.00D-03
 ---------------------------------------------------------------
 (dimension of paired reduced space:   72)
 RSP solution vector no.    1; norm of residual   5.26D-04
 RSP solution vector no.    2; norm of residual   5.27D-04
 RSP solution vector no.    3; norm of residual   5.32D-04
 RSP solution vector no.    4; norm of residual   5.40D-04
 RSP solution vector no.    5; norm of residual   5.51D-04
 RSP solution vector no.    6; norm of residual   5.66D-04
 RSP solution vector no.    7; norm of residual   5.85D-04
 RSP solution vector no.    8; norm of residual   6.08D-04
 RSP solution vector no.    9; norm of residual   6.35D-04

 *** RSPCTL MICROITERATIONS CONVERGED

@ QRLRVE: SINGLET SOLUTION FOR SYMMETRY    1  ( A  )    LABEL   YDIPLEN     FREQUENCY   0.000000D+00

@ QRLRVE:  << XDIPLEN  ; YDIPLEN  >> (   0.00000):    3.106831032102E-14

@ QRLRVE:  << YDIPLEN  ; YDIPLEN  >> (   0.00000):     9.03735233282    

@ QRLRVE:  << ZDIPLEN  ; YDIPLEN  >> (   0.00000):   -5.404143200188E-05

@ QRLRVE: SINGLET SOLUTION FOR SYMMETRY    1  ( A  )    LABEL   YDIPLEN     FREQUENCY   0.198667D-01

@ QRLRVE:  << XDIPLEN  ; YDIPLEN  >> (   0.01987):    3.114270319162E-14

@ QRLRVE:  << YDIPLEN  ; YDIPLEN  >> (   0.01987):     9.04515964901    

@ QRLRVE:  << ZDIPLEN  ; YDIPLEN  >> (   0.01987):   -5.437023061489E-05

@ QRLRVE: SINGLET SOLUTION FOR SYMMETRY    1  ( A  )    LABEL   YDIPLEN     FREQUENCY   0.397334D-01

@ QRLRVE:  << XDIPLEN  ; YDIPLEN  >> (   0.03973):    3.136829163226E-14

@ QRLRVE:  << YDIPLEN  ; YDIPLEN  >> (   0.03973):     9.06868542494    

@ QRLRVE:  << ZDIPLEN  ; YDIPLEN  >> (   0.03973):   -5.536805219195E-05

@ QRLRVE: SINGLET SOLUTION FOR SYMMETRY    1  ( A  )    LABEL   YDIPLEN     FREQUENCY   0.596001D-01

@ QRLRVE:  << XDIPLEN  ; YDIPLEN  >> (   0.05960):    3.175251048027E-14

@ QRLRVE:  << YDIPLEN  ; YDIPLEN  >> (   0.05960):     9.10824507951    

@ QRLRVE:  << ZDIPLEN  ; YDIPLEN  >> (   0.05960):   -5.706971959075E-05

@ QRLRVE: SINGLET SOLUTION FOR SYMMETRY    1  ( A  )    LABEL   YDIPLEN     FREQUENCY   0.794668D-01

@ QRLRVE:  << XDIPLEN  ; YDIPLEN  >> (   0.07947):    3.230846561420E-14

@ QRLRVE:  << YDIPLEN  ; YDIPLEN  >> (   0.07947):     9.16437773967    

@ QRLRVE:  << ZDIPLEN  ; YDIPLEN  >> (   0.07947):   -5.953511341142E-05

@ QRLRVE: SINGLET SOLUTION FOR SYMMETRY    1  ( A  )    LABEL   YDIPLEN     FREQUENCY   0.993334D-01

@ QRLRVE:  << XDIPLEN  ; YDIPLEN  >> (   0.09933):    3.305611708224E-14

@ QRLRVE:  << YDIPLEN  ; YDIPLEN  >> (   0.09933):     9.23786749593    

@ QRLRVE:  << ZDIPLEN  ; YDIPLEN  >> (   0.09933):   -6.285201607752E-05

@ QRLRVE: SINGLET SOLUTION FOR SYMMETRY    1  ( A  )    LABEL   YDIPLEN     FREQUENCY   0.119200D+00

@ QRLRVE:  << XDIPLEN  ; YDIPLEN  >> (   0.11920):    3.402418357513E-14

@ QRLRVE:  << YDIPLEN  ; YDIPLEN  >> (   0.11920):     9.32977554234    

@ QRLRVE:  << ZDIPLEN  ; YDIPLEN  >> (   0.11920):   -6.714024280958E-05

@ QRLRVE: SINGLET SOLUTION FOR SYMMETRY    1  ( A  )    LABEL   YDIPLEN     FREQUENCY   0.139067D+00

@ QRLRVE:  << XDIPLEN  ; YDIPLEN  >> (   0.13907):    3.525308343484E-14

@ QRLRVE:  << YDIPLEN  ; YDIPLEN  >> (   0.13907):     9.44148598569    

@ QRLRVE:  << ZDIPLEN  ; YDIPLEN  >> (   0.13907):   -7.255717350079E-05

@ QRLRVE: SINGLET SOLUTION FOR SYMMETRY    1  ( A  )    LABEL   YDIPLEN     FREQUENCY   0.158934D+00

@ QRLRVE:  << XDIPLEN  ; YDIPLEN  >> (   0.15893):    3.679943772810E-14

@ QRLRVE:  << YDIPLEN  ; YDIPLEN  >> (   0.15893):     9.57476958018    

@ QRLRVE:  << ZDIPLEN  ; YDIPLEN  >> (   0.15893):   -7.930475474537E-05


 QRLRVE -- linear response calculation for symmetry  1  ( A  )
 QRLRVE -- operator label : ZDIPLEN 
 QRLRVE -- operator spin  :   0
 QRLRVE -- frequencies :  0.000000  0.019867  0.039733  0.059600  0.079467
                          0.099333  0.119200  0.139067  0.158934



 ---  SOLVING SETS OF LINEAR EQUATIONS FOR LINEAR RESPONSE PROPERTIES ---

 Operator symmetry = 1  ( A  ); triplet =   F

RSPORT:    1 out of    9 new trial vectors linear dependent

 ** RSPCTL MICROITERATION NUMBER    1

       No.  Residual tot.,    conf., and orb.    Bnorm      Frequency 
      ----------------------------------------------------------------
         1    1.36316D+00  0.00D+00  1.36D+00  2.15D+00    0.00000D+00
         2    1.36444D+00  0.00D+00  1.36D+00  2.15D+00    1.98667D-02
         3    1.36833D+00  0.00D+00  1.37D+00  2.17D+00    3.97334D-02
         4    1.37488D+00  0.00D+00  1.37D+00  2.19D+00    5.96001D-02
         5    1.38424D+00  0.00D+00  1.38D+00  2.22D+00    7.94668D-02
         6    1.39660D+00  0.00D+00  1.40D+00  2.27D+00    9.93334D-02
         7    1.41223D+00  0.00D+00  1.41D+00  2.33D+00    1.19200D-01
         8    1.43153D+00  0.00D+00  1.43D+00  2.40D+00    1.39067D-01
         9    1.45501D+00  0.00D+00  1.46D+00  2.49D+00    1.58934D-01

 ** RSPCTL MICROITERATION NUMBER    2

       No.  Residual tot.,    conf., and orb.    Bnorm      Frequency 
      ----------------------------------------------------------------
         1    2.16495D-01  0.00D+00  2.16D-01  2.30D+00    0.00000D+00
         2    2.16741D-01  0.00D+00  2.17D-01  2.30D+00    1.98667D-02
         3    2.17480D-01  0.00D+00  2.17D-01  2.32D+00    3.97334D-02
         4    2.18723D-01  0.00D+00  2.19D-01  2.34D+00    5.96001D-02
         5    2.20486D-01  0.00D+00  2.20D-01  2.38D+00    7.94668D-02
         6    2.22795D-01  0.00D+00  2.23D-01  2.43D+00    9.93334D-02
         7    2.25684D-01  0.00D+00  2.26D-01  2.50D+00    1.19200D-01
         8    2.29196D-01  0.00D+00  2.29D-01  2.58D+00    1.39067D-01
         9    2.33392D-01  0.00D+00  2.33D-01  2.68D+00    1.58934D-01

 ** RSPCTL MICROITERATION NUMBER    3

       No.  Residual tot.,    conf., and orb.    Bnorm      Frequency 
      ----------------------------------------------------------------
         1    2.49164D-02  0.00D+00  2.49D-02  2.30D+00    0.00000D+00
         2    2.49531D-02  0.00D+00  2.50D-02  2.31D+00    1.98667D-02
         3    2.50635D-02  0.00D+00  2.51D-02  2.32D+00    3.97334D-02
         4    2.52494D-02  0.00D+00  2.52D-02  2.35D+00    5.96001D-02
         5    2.55133D-02  0.00D+00  2.55D-02  2.39D+00    7.94668D-02
         6    2.58593D-02  0.00D+00  2.59D-02  2.44D+00    9.93334D-02
         7    2.62925D-02  0.00D+00  2.63D-02  2.50D+00    1.19200D-01
         8    2.68201D-02  0.00D+00  2.68D-02  2.59D+00    1.39067D-01
         9    2.74509D-02  0.00D+00  2.75D-02  2.69D+00    1.58934D-01

 ** RSPCTL MICROITERATION NUMBER    4

       No.  Residual tot.,    conf., and orb.    Bnorm      Frequency 
      ----------------------------------------------------------------
         1    1.20947D-03  0.00D+00  1.21D-03  2.30D+00    0.00000D+00
         2    1.21357D-03  0.00D+00  1.21D-03  2.31D+00    1.98667D-02
         3    1.22602D-03  0.00D+00  1.23D-03  2.32D+00    3.97334D-02
         4    1.24734D-03  0.00D+00  1.25D-03  2.35D+00    5.96001D-02
         5    1.27844D-03  0.00D+00  1.28D-03  2.39D+00    7.94668D-02
         6    1.32071D-03  0.00D+00  1.32D-03  2.44D+00    9.93334D-02
         7    1.37615D-03  0.00D+00  1.38D-03  2.50D+00    1.19200D-01
         8    1.44761D-03  0.00D+00  1.45D-03  2.59D+00    1.39067D-01
         9    1.53909D-03  0.00D+00  1.54D-03  2.69D+00    1.58934D-01

 *** THE REQUESTED    9 SOLUTION VECTORS CONVERGED

 Convergence of RSP solution vectors, threshold = 1.00D-03
 ---------------------------------------------------------------
 (dimension of paired reduced space:   70)
 RSP solution vector no.    1; norm of residual   5.25D-04
 RSP solution vector no.    2; norm of residual   5.26D-04
 RSP solution vector no.    3; norm of residual   5.28D-04
 RSP solution vector no.    4; norm of residual   5.31D-04
 RSP solution vector no.    5; norm of residual   5.35D-04
 RSP solution vector no.    6; norm of residual   5.41D-04
 RSP solution vector no.    7; norm of residual   5.49D-04
 RSP solution vector no.    8; norm of residual   5.60D-04
 RSP solution vector no.    9; norm of residual   5.72D-04

 *** RSPCTL MICROITERATIONS CONVERGED

@ QRLRVE: SINGLET SOLUTION FOR SYMMETRY    1  ( A  )    LABEL   ZDIPLEN     FREQUENCY   0.000000D+00

@ QRLRVE:  << XDIPLEN  ; ZDIPLEN  >> (   0.00000):    3.462356124731E-13

@ QRLRVE:  << YDIPLEN  ; ZDIPLEN  >> (   0.00000):   -4.149287984264E-04

@ QRLRVE:  << ZDIPLEN  ; ZDIPLEN  >> (   0.00000):     8.05558512740    

@ QRLRVE: SINGLET SOLUTION FOR SYMMETRY    1  ( A  )    LABEL   ZDIPLEN     FREQUENCY   0.198667D-01

@ QRLRVE:  << XDIPLEN  ; ZDIPLEN  >> (   0.01987):    3.473786286598E-13

@ QRLRVE:  << YDIPLEN  ; ZDIPLEN  >> (   0.01987):   -4.184362092680E-04

@ QRLRVE:  << ZDIPLEN  ; ZDIPLEN  >> (   0.01987):     8.06374866401    

@ QRLRVE: SINGLET SOLUTION FOR SYMMETRY    1  ( A  )    LABEL   ZDIPLEN     FREQUENCY   0.397334D-01

@ QRLRVE:  << XDIPLEN  ; ZDIPLEN  >> (   0.03973):    3.508323549648E-13

@ QRLRVE:  << YDIPLEN  ; ZDIPLEN  >> (   0.03973):   -4.291272620930E-04

@ QRLRVE:  << ZDIPLEN  ; ZDIPLEN  >> (   0.03973):     8.08840730556    

@ QRLRVE: SINGLET SOLUTION FOR SYMMETRY    1  ( A  )    LABEL   ZDIPLEN     FREQUENCY   0.596001D-01

@ QRLRVE:  << XDIPLEN  ; ZDIPLEN  >> (   0.05960):    3.566714738174E-13

@ QRLRVE:  << YDIPLEN  ; ZDIPLEN  >> (   0.05960):   -4.475242733699E-04

@ QRLRVE:  << ZDIPLEN  ; ZDIPLEN  >> (   0.05960):     8.13007609952    

@ QRLRVE: SINGLET SOLUTION FOR SYMMETRY    1  ( A  )    LABEL   ZDIPLEN     FREQUENCY   0.794668D-01

@ QRLRVE:  << XDIPLEN  ; ZDIPLEN  >> (   0.07947):    3.650225352520E-13

@ QRLRVE:  << YDIPLEN  ; ZDIPLEN  >> (   0.07947):   -4.745531226250E-04

@ QRLRVE:  << ZDIPLEN  ; ZDIPLEN  >> (   0.07947):     8.18965143915    

@ QRLRVE: SINGLET SOLUTION FOR SYMMETRY    1  ( A  )    LABEL   ZDIPLEN     FREQUENCY   0.993334D-01

@ QRLRVE:  << XDIPLEN  ; ZDIPLEN  >> (   0.09933):    3.760667227497E-13

@ QRLRVE:  << YDIPLEN  ; ZDIPLEN  >> (   0.09933):   -5.116356410142E-04

@ QRLRVE:  << ZDIPLEN  ; ZDIPLEN  >> (   0.09933):     8.26847352639    

@ QRLRVE: SINGLET SOLUTION FOR SYMMETRY    1  ( A  )    LABEL   ZDIPLEN     FREQUENCY   0.119200D+00

@ QRLRVE:  << XDIPLEN  ; ZDIPLEN  >> (   0.11920):    3.900427830671E-13

@ QRLRVE:  << YDIPLEN  ; ZDIPLEN  >> (   0.11920):   -5.608400894449E-04

@ QRLRVE:  << ZDIPLEN  ; ZDIPLEN  >> (   0.11920):     8.36842612888    

@ QRLRVE: SINGLET SOLUTION FOR SYMMETRY    1  ( A  )    LABEL   ZDIPLEN     FREQUENCY   0.139067D+00

@ QRLRVE:  << XDIPLEN  ; ZDIPLEN  >> (   0.13907):    4.072484909116E-13

@ QRLRVE:  << YDIPLEN  ; ZDIPLEN  >> (   0.13907):   -6.251174004521E-04

@ QRLRVE:  << ZDIPLEN  ; ZDIPLEN  >> (   0.13907):     8.49208951914    

@ QRLRVE: SINGLET SOLUTION FOR SYMMETRY    1  ( A  )    LABEL   ZDIPLEN     FREQUENCY   0.158934D+00

@ QRLRVE:  << XDIPLEN  ; ZDIPLEN  >> (   0.15893):    4.280371297861E-13

@ QRLRVE:  << YDIPLEN  ; ZDIPLEN  >> (   0.15893):   -7.086709297518E-04

@ QRLRVE:  << ZDIPLEN  ; ZDIPLEN  >> (   0.15893):     8.64297364483    
 
 ======================================================================
 ---  L I N E A R   R E S P O N S E   F U N C T I O N S --- 
 ======================================================================

 The -<<A;B>>(omega_b) functions from vectors generated
 in a *QUADRA calculation of <<A;B,C>>(omega_b,omega_c)

 Note: the accuracy of off-diagonal elements will be linear
 in the convergence threshold THCLR =  1.00D-03


 Perturbation symmetry.     KSYMOP:           1
 Perturbation spin symmetry.TRPLET:           F
 Orbital variables.         KZWOPT:         200
 Configuration variables.   KZCONF:           0
 Total number of variables. KZVAR :         200

@ Singlet linear response function in a.u.

@ A operator, symmetry, frequency:   XDIPLEN    1 -0.000000
@ B operator, symmetry, frequency:   XDIPLEN    1  0.000000

@ Value of linear response -<<A;B>>(omega):       7.322176468737

@ Singlet linear response function in a.u.

@ A operator, symmetry, frequency:   YDIPLEN    1 -0.000000
@ B operator, symmetry, frequency:   XDIPLEN    1  0.000000

@ Value of linear response -<<A;B>>(omega):       0.000000000000

@ Singlet linear response function in a.u.

@ A operator, symmetry, frequency:   ZDIPLEN    1 -0.000000
@ B operator, symmetry, frequency:   XDIPLEN    1  0.000000

@ Value of linear response -<<A;B>>(omega):       0.000000000000

@ Singlet linear response function in a.u.

@ A operator, symmetry, frequency:   XDIPLEN    1 -0.019867
@ B operator, symmetry, frequency:   XDIPLEN    1  0.019867

@ Value of linear response -<<A;B>>(omega):       7.331558379467

@ Singlet linear response function in a.u.

@ A operator, symmetry, frequency:   YDIPLEN    1 -0.019867
@ B operator, symmetry, frequency:   XDIPLEN    1  0.019867

@ Value of linear response -<<A;B>>(omega):       0.000000000000

@ Singlet linear response function in a.u.

@ A operator, symmetry, frequency:   ZDIPLEN    1 -0.019867
@ B operator, symmetry, frequency:   XDIPLEN    1  0.019867

@ Value of linear response -<<A;B>>(omega):       0.000000000000

@ Singlet linear response function in a.u.

@ A operator, symmetry, frequency:   XDIPLEN    1 -0.039733
@ B operator, symmetry, frequency:   XDIPLEN    1  0.039733

@ Value of linear response -<<A;B>>(omega):       7.360020307410

@ Singlet linear response function in a.u.

@ A operator, symmetry, frequency:   YDIPLEN    1 -0.039733
@ B operator, symmetry, frequency:   XDIPLEN    1  0.039733

@ Value of linear response -<<A;B>>(omega):       0.000000000000

@ Singlet linear response function in a.u.

@ A operator, symmetry, frequency:   ZDIPLEN    1 -0.039733
@ B operator, symmetry, frequency:   XDIPLEN    1  0.039733

@ Value of linear response -<<A;B>>(omega):       0.000000000000

@ Singlet linear response function in a.u.

@ A operator, symmetry, frequency:   XDIPLEN    1 -0.059600
@ B operator, symmetry, frequency:   XDIPLEN    1  0.059600

@ Value of linear response -<<A;B>>(omega):       7.408545985338

@ Singlet linear response function in a.u.

@ A operator, symmetry, frequency:   YDIPLEN    1 -0.059600
@ B operator, symmetry, frequency:   XDIPLEN    1  0.059600

@ Value of linear response -<<A;B>>(omega):       0.000000000000

@ Singlet linear response function in a.u.

@ A operator, symmetry, frequency:   ZDIPLEN    1 -0.059600
@ B operator, symmetry, frequency:   XDIPLEN    1  0.059600

@ Value of linear response -<<A;B>>(omega):       0.000000000000

@ Singlet linear response function in a.u.

@ A operator, symmetry, frequency:   XDIPLEN    1 -0.079467
@ B operator, symmetry, frequency:   XDIPLEN    1  0.079467

@ Value of linear response -<<A;B>>(omega):       7.478900142075

@ Singlet linear response function in a.u.

@ A operator, symmetry, frequency:   YDIPLEN    1 -0.079467
@ B operator, symmetry, frequency:   XDIPLEN    1  0.079467

@ Value of linear response -<<A;B>>(omega):       0.000000000000

@ Singlet linear response function in a.u.

@ A operator, symmetry, frequency:   ZDIPLEN    1 -0.079467
@ B operator, symmetry, frequency:   XDIPLEN    1  0.079467

@ Value of linear response -<<A;B>>(omega):       0.000000000000

@ Singlet linear response function in a.u.

@ A operator, symmetry, frequency:   XDIPLEN    1 -0.000000
@ B operator, symmetry, frequency:   YDIPLEN    1  0.000000

@ Value of linear response -<<A;B>>(omega):       0.000000000000

@ Singlet linear response function in a.u.

@ A operator, symmetry, frequency:   YDIPLEN    1 -0.000000
@ B operator, symmetry, frequency:   YDIPLEN    1  0.000000

@ Value of linear response -<<A;B>>(omega):       9.037352332817

@ Singlet linear response function in a.u.

@ A operator, symmetry, frequency:   ZDIPLEN    1 -0.000000
@ B operator, symmetry, frequency:   YDIPLEN    1  0.000000

@ Value of linear response -<<A;B>>(omega):      -0.000054041432

@ Singlet linear response function in a.u.

@ A operator, symmetry, frequency:   XDIPLEN    1 -0.019867
@ B operator, symmetry, frequency:   YDIPLEN    1  0.019867

@ Value of linear response -<<A;B>>(omega):       0.000000000000

@ Singlet linear response function in a.u.

@ A operator, symmetry, frequency:   YDIPLEN    1 -0.019867
@ B operator, symmetry, frequency:   YDIPLEN    1  0.019867

@ Value of linear response -<<A;B>>(omega):       9.045159649007

@ Singlet linear response function in a.u.

@ A operator, symmetry, frequency:   ZDIPLEN    1 -0.019867
@ B operator, symmetry, frequency:   YDIPLEN    1  0.019867

@ Value of linear response -<<A;B>>(omega):      -0.000054370231

@ Singlet linear response function in a.u.

@ A operator, symmetry, frequency:   XDIPLEN    1 -0.039733
@ B operator, symmetry, frequency:   YDIPLEN    1  0.039733

@ Value of linear response -<<A;B>>(omega):       0.000000000000

@ Singlet linear response function in a.u.

@ A operator, symmetry, frequency:   YDIPLEN    1 -0.039733
@ B operator, symmetry, frequency:   YDIPLEN    1  0.039733

@ Value of linear response -<<A;B>>(omega):       9.068685424936

@ Singlet linear response function in a.u.

@ A operator, symmetry, frequency:   ZDIPLEN    1 -0.039733
@ B operator, symmetry, frequency:   YDIPLEN    1  0.039733

@ Value of linear response -<<A;B>>(omega):      -0.000055368052

@ Singlet linear response function in a.u.

@ A operator, symmetry, frequency:   XDIPLEN    1 -0.059600
@ B operator, symmetry, frequency:   YDIPLEN    1  0.059600

@ Value of linear response -<<A;B>>(omega):       0.000000000000

@ Singlet linear response function in a.u.

@ A operator, symmetry, frequency:   YDIPLEN    1 -0.059600
@ B operator, symmetry, frequency:   YDIPLEN    1  0.059600

@ Value of linear response -<<A;B>>(omega):       9.108245079508

@ Singlet linear response function in a.u.

@ A operator, symmetry, frequency:   ZDIPLEN    1 -0.059600
@ B operator, symmetry, frequency:   YDIPLEN    1  0.059600

@ Value of linear response -<<A;B>>(omega):      -0.000057069720

@ Singlet linear response function in a.u.

@ A operator, symmetry, frequency:   XDIPLEN    1 -0.079467
@ B operator, symmetry, frequency:   YDIPLEN    1  0.079467

@ Value of linear response -<<A;B>>(omega):       0.000000000000

@ Singlet linear response function in a.u.

@ A operator, symmetry, frequency:   YDIPLEN    1 -0.079467
@ B operator, symmetry, frequency:   YDIPLEN    1  0.079467

@ Value of linear response -<<A;B>>(omega):       9.164377739668

@ Singlet linear response function in a.u.

@ A operator, symmetry, frequency:   ZDIPLEN    1 -0.079467
@ B operator, symmetry, frequency:   YDIPLEN    1  0.079467

@ Value of linear response -<<A;B>>(omega):      -0.000059535113

@ Singlet linear response function in a.u.

@ A operator, symmetry, frequency:   XDIPLEN    1 -0.000000
@ B operator, symmetry, frequency:   ZDIPLEN    1  0.000000

@ Value of linear response -<<A;B>>(omega):       0.000000000000

@ Singlet linear response function in a.u.

@ A operator, symmetry, frequency:   YDIPLEN    1 -0.000000
@ B operator, symmetry, frequency:   ZDIPLEN    1  0.000000

@ Value of linear response -<<A;B>>(omega):      -0.000414928798

@ Singlet linear response function in a.u.

@ A operator, symmetry, frequency:   ZDIPLEN    1 -0.000000
@ B operator, symmetry, frequency:   ZDIPLEN    1  0.000000

@ Value of linear response -<<A;B>>(omega):       8.055585127403

@ Singlet linear response function in a.u.

@ A operator, symmetry, frequency:   XDIPLEN    1 -0.019867
@ B operator, symmetry, frequency:   ZDIPLEN    1  0.019867

@ Value of linear response -<<A;B>>(omega):       0.000000000000

@ Singlet linear response function in a.u.

@ A operator, symmetry, frequency:   YDIPLEN    1 -0.019867
@ B operator, symmetry, frequency:   ZDIPLEN    1  0.019867

@ Value of linear response -<<A;B>>(omega):      -0.000418436209

@ Singlet linear response function in a.u.

@ A operator, symmetry, frequency:   ZDIPLEN    1 -0.019867
@ B operator, symmetry, frequency:   ZDIPLEN    1  0.019867

@ Value of linear response -<<A;B>>(omega):       8.063748664010

@ Singlet linear response function in a.u.

@ A operator, symmetry, frequency:   XDIPLEN    1 -0.039733
@ B operator, symmetry, frequency:   ZDIPLEN    1  0.039733

@ Value of linear response -<<A;B>>(omega):       0.000000000000

@ Singlet linear response function in a.u.

@ A operator, symmetry, frequency:   YDIPLEN    1 -0.039733
@ B operator, symmetry, frequency:   ZDIPLEN    1  0.039733

@ Value of linear response -<<A;B>>(omega):      -0.000429127262

@ Singlet linear response function in a.u.

@ A operator, symmetry, frequency:   ZDIPLEN    1 -0.039733
@ B operator, symmetry, frequency:   ZDIPLEN    1  0.039733

@ Value of linear response -<<A;B>>(omega):       8.088407305557

@ Singlet linear response function in a.u.

@ A operator, symmetry, frequency:   XDIPLEN    1 -0.059600
@ B operator, symmetry, frequency:   ZDIPLEN    1  0.059600

@ Value of linear response -<<A;B>>(omega):       0.000000000000

@ Singlet linear response function in a.u.

@ A operator, symmetry, frequency:   YDIPLEN    1 -0.059600
@ B operator, symmetry, frequency:   ZDIPLEN    1  0.059600

@ Value of linear response -<<A;B>>(omega):      -0.000447524273

@ Singlet linear response function in a.u.

@ A operator, symmetry, frequency:   ZDIPLEN    1 -0.059600
@ B operator, symmetry, frequency:   ZDIPLEN    1  0.059600

@ Value of linear response -<<A;B>>(omega):       8.130076099518

@ Singlet linear response function in a.u.

@ A operator, symmetry, frequency:   XDIPLEN    1 -0.079467
@ B operator, symmetry, frequency:   ZDIPLEN    1  0.079467

@ Value of linear response -<<A;B>>(omega):       0.000000000000

@ Singlet linear response function in a.u.

@ A operator, symmetry, frequency:   YDIPLEN    1 -0.079467
@ B operator, symmetry, frequency:   ZDIPLEN    1  0.079467

@ Value of linear response -<<A;B>>(omega):      -0.000474553123

@ Singlet linear response function in a.u.

@ A operator, symmetry, frequency:   ZDIPLEN    1 -0.079467
@ B operator, symmetry, frequency:   ZDIPLEN    1  0.079467

@ Value of linear response -<<A;B>>(omega):       8.189651439147


  Results from quadratic response calculation
 --------------------------------------------

@ B-freq = 0.000000  C-freq = 0.000000     beta(X;X,X) =     -0.00000000
@ B-freq = 0.000000  C-freq = 0.000000     beta(Y;X,X) =      0.00091555
@ B-freq = 0.000000  C-freq = 0.000000     beta(Z;X,X) =      0.06633124
@ B-freq = 0.019867  C-freq = 0.000000     beta(X;X,X) =     -0.00000000
@ B-freq = 0.019867  C-freq = 0.000000     beta(Y;X,X) =      0.00092009
@ B-freq = 0.019867  C-freq = 0.000000     beta(Z;X,X) =      0.06073806
@ B-freq = 0.039733  C-freq = 0.000000     beta(X;X,X) =     -0.00000000
@ B-freq = 0.039733  C-freq = 0.000000     beta(Y;X,X) =      0.00093381
@ B-freq = 0.039733  C-freq = 0.000000     beta(Z;X,X) =      0.04366683
@ B-freq = 0.059600  C-freq = 0.000000     beta(X;X,X) =     -0.00000000
@ B-freq = 0.059600  C-freq = 0.000000     beta(Y;X,X) =      0.00095697
@ B-freq = 0.059600  C-freq = 0.000000     beta(Z;X,X) =      0.01421318
@ B-freq = 0.079467  C-freq = 0.000000     beta(X;X,X) =     -0.00000000
@ B-freq = 0.079467  C-freq = 0.000000     beta(Y;X,X) =      0.00098997
@ B-freq = 0.079467  C-freq = 0.000000     beta(Z;X,X) =     -0.02923350
@ B-freq = 0.000000  C-freq = 0.000000     beta(X;Y,X) = beta(Y,X,X)
@ B-freq = 0.000000  C-freq = 0.000000     beta(X;Y,X) =      0.00091555
@ B-freq = 0.000000  C-freq = 0.000000     beta(Y;Y,X) =     -0.00000000
@ B-freq = 0.000000  C-freq = 0.000000     beta(Z;Y,X) =      0.00000000
@ B-freq = 0.019867  C-freq = 0.000000     beta(X;Y,X) =      0.00092009
@ B-freq = 0.019867  C-freq = 0.000000     beta(Y;Y,X) =     -0.00000000
@ B-freq = 0.019867  C-freq = 0.000000     beta(Z;Y,X) =      0.00000000
@ B-freq = 0.039733  C-freq = 0.000000     beta(X;Y,X) =      0.00093381
@ B-freq = 0.039733  C-freq = 0.000000     beta(Y;Y,X) =     -0.00000000
@ B-freq = 0.039733  C-freq = 0.000000     beta(Z;Y,X) =      0.00000000
@ B-freq = 0.059600  C-freq = 0.000000     beta(X;Y,X) =      0.00095697
@ B-freq = 0.059600  C-freq = 0.000000     beta(Y;Y,X) =     -0.00000000
@ B-freq = 0.059600  C-freq = 0.000000     beta(Z;Y,X) =      0.00000000
@ B-freq = 0.079467  C-freq = 0.000000     beta(X;Y,X) =      0.00098997
@ B-freq = 0.079467  C-freq = 0.000000     beta(Y;Y,X) =     -0.00000000
@ B-freq = 0.079467  C-freq = 0.000000     beta(Z;Y,X) =      0.00000000
@ B-freq = 0.000000  C-freq = 0.000000     beta(X;Z,X) = beta(Z,X,X)
@ B-freq = 0.000000  C-freq = 0.000000     beta(Y;Z,X) = beta(Z,Y,X)
@ B-freq = 0.000000  C-freq = 0.000000     beta(X;Z,X) =      0.06633121
@ B-freq = 0.000000  C-freq = 0.000000     beta(Y;Z,X) =      0.00000000
@ B-freq = 0.000000  C-freq = 0.000000     beta(Z;Z,X) =      0.00000000
@ B-freq = 0.019867  C-freq = 0.000000     beta(X;Z,X) =      0.06073802
@ B-freq = 0.019867  C-freq = 0.000000     beta(Y;Z,X) =      0.00000000
@ B-freq = 0.019867  C-freq = 0.000000     beta(Z;Z,X) =      0.00000000
@ B-freq = 0.039733  C-freq = 0.000000     beta(X;Z,X) =      0.04366680
@ B-freq = 0.039733  C-freq = 0.000000     beta(Y;Z,X) =      0.00000000
@ B-freq = 0.039733  C-freq = 0.000000     beta(Z;Z,X) =      0.00000000
@ B-freq = 0.059600  C-freq = 0.000000     beta(X;Z,X) =      0.01421314
@ B-freq = 0.059600  C-freq = 0.000000     beta(Y;Z,X) =      0.00000000
@ B-freq = 0.059600  C-freq = 0.000000     beta(Z;Z,X) =      0.00000000
@ B-freq = 0.079467  C-freq = 0.000000     beta(X;Z,X) =     -0.02923355
@ B-freq = 0.079467  C-freq = 0.000000     beta(Y;Z,X) =      0.00000000
@ B-freq = 0.079467  C-freq = 0.000000     beta(Z;Z,X) =      0.00000000
@ B-freq = 0.000000  C-freq = 0.019867     beta(X;X,X) = beta(X,X,X)
@ B-freq = 0.000000  C-freq = 0.019867     beta(Y;X,X) = beta(Y,X,X)
@ B-freq = 0.000000  C-freq = 0.019867     beta(Z;X,X) = beta(Z,X,X)
@ B-freq = 0.019867  C-freq = 0.019867     beta(X;X,X) =     -0.00000000
@ B-freq = 0.019867  C-freq = 0.019867     beta(Y;X,X) =      0.00094237
@ B-freq = 0.019867  C-freq = 0.019867     beta(Z;X,X) =      0.00776410
@ B-freq = 0.039733  C-freq = 0.019867     beta(X;X,X) =     -0.00000000
@ B-freq = 0.039733  C-freq = 0.019867     beta(Y;X,X) =      0.00097498
@ B-freq = 0.039733  C-freq = 0.019867     beta(Z;X,X) =     -0.05898809
@ B-freq = 0.059600  C-freq = 0.019867     beta(X;X,X) =     -0.00000000
@ B-freq = 0.059600  C-freq = 0.019867     beta(Y;X,X) =      0.00101911
@ B-freq = 0.059600  C-freq = 0.019867     beta(Z;X,X) =     -0.14249720
@ B-freq = 0.079467  C-freq = 0.019867     beta(X;X,X) =     -0.00000000
@ B-freq = 0.079467  C-freq = 0.019867     beta(Y;X,X) =      0.00107629
@ B-freq = 0.079467  C-freq = 0.019867     beta(Z;X,X) =     -0.24691450
@ B-freq = 0.000000  C-freq = 0.019867     beta(X;Y,X) =      0.00090725
@ B-freq = 0.000000  C-freq = 0.019867     beta(Y;Y,X) =     -0.00000000
@ B-freq = 0.000000  C-freq = 0.019867     beta(Z;Y,X) =      0.00000000
@ B-freq = 0.019867  C-freq = 0.019867     beta(X;Y,X) =      0.00090315
@ B-freq = 0.019867  C-freq = 0.019867     beta(Y;Y,X) =     -0.00000000
@ B-freq = 0.019867  C-freq = 0.019867     beta(Z;Y,X) =      0.00000000
@ B-freq = 0.039733  C-freq = 0.019867     beta(X;Y,X) =      0.00090723
@ B-freq = 0.039733  C-freq = 0.019867     beta(Y;Y,X) =     -0.00000000
@ B-freq = 0.039733  C-freq = 0.019867     beta(Z;Y,X) =      0.00000000
@ B-freq = 0.059600  C-freq = 0.019867     beta(X;Y,X) =      0.00091894
@ B-freq = 0.059600  C-freq = 0.019867     beta(Y;Y,X) =     -0.00000000
@ B-freq = 0.059600  C-freq = 0.019867     beta(Z;Y,X) =      0.00000000
@ B-freq = 0.079467  C-freq = 0.019867     beta(X;Y,X) =      0.00093761
@ B-freq = 0.079467  C-freq = 0.019867     beta(Y;Y,X) =     -0.00000000
@ B-freq = 0.079467  C-freq = 0.019867     beta(Z;Y,X) =      0.00000000
@ B-freq = 0.000000  C-freq = 0.019867     beta(X;Z,X) =      0.10206616
@ B-freq = 0.000000  C-freq = 0.019867     beta(Y;Z,X) =      0.00000000
@ B-freq = 0.000000  C-freq = 0.019867     beta(Z;Z,X) =      0.00000000
@ B-freq = 0.019867  C-freq = 0.019867     beta(X;Z,X) =      0.13325125
@ B-freq = 0.019867  C-freq = 0.019867     beta(Y;Z,X) =      0.00000000
@ B-freq = 0.019867  C-freq = 0.019867     beta(Z;Z,X) =      0.00000000
@ B-freq = 0.039733  C-freq = 0.019867     beta(X;Z,X) =      0.15531591
@ B-freq = 0.039733  C-freq = 0.019867     beta(Y;Z,X) =      0.00000000
@ B-freq = 0.039733  C-freq = 0.019867     beta(Z;Z,X) =      0.00000000
@ B-freq = 0.059600  C-freq = 0.019867     beta(X;Z,X) =      0.16891399
@ B-freq = 0.059600  C-freq = 0.019867     beta(Y;Z,X) =      0.00000000
@ B-freq = 0.059600  C-freq = 0.019867     beta(Z;Z,X) =      0.00000000
@ B-freq = 0.079467  C-freq = 0.019867     beta(X;Z,X) =      0.17442919
@ B-freq = 0.079467  C-freq = 0.019867     beta(Y;Z,X) =      0.00000000
@ B-freq = 0.079467  C-freq = 0.019867     beta(Z;Z,X) =      0.00000000
@ B-freq = 0.000000  C-freq = 0.039733     beta(X;X,X) = beta(X,X,X)
@ B-freq = 0.000000  C-freq = 0.039733     beta(Y;X,X) = beta(Y,X,X)
[...]
@ B-freq = 0.059600  C-freq = 0.059600     beta(X;Z,Y) =      0.00000000
@ B-freq = 0.059600  C-freq = 0.059600     beta(Y;Z,Y) =     13.22477260
@ B-freq = 0.059600  C-freq = 0.059600     beta(Z;Z,Y) =     -0.00222841
@ B-freq = 0.079467  C-freq = 0.059600     beta(X;Z,Y) =      0.00000000
@ B-freq = 0.079467  C-freq = 0.059600     beta(Y;Z,Y) =     13.66223402
@ B-freq = 0.079467  C-freq = 0.059600     beta(Z;Z,Y) =     -0.00291740
@ B-freq = 0.000000  C-freq = 0.079467     beta(X;X,Y) = beta(X,Y,X)
@ B-freq = 0.000000  C-freq = 0.079467     beta(Y;X,Y) = beta(Y,Y,X)
@ B-freq = 0.000000  C-freq = 0.079467     beta(Z;X,Y) = beta(Z,Y,X)
@ B-freq = 0.019867  C-freq = 0.079467     beta(X;X,Y) = beta(X,Y,X)
@ B-freq = 0.019867  C-freq = 0.079467     beta(Y;X,Y) = beta(Y,Y,X)
@ B-freq = 0.019867  C-freq = 0.079467     beta(Z;X,Y) = beta(Z,Y,X)
@ B-freq = 0.039733  C-freq = 0.079467     beta(X;X,Y) = beta(X,Y,X)
@ B-freq = 0.039733  C-freq = 0.079467     beta(Y;X,Y) = beta(Y,Y,X)
@ B-freq = 0.039733  C-freq = 0.079467     beta(Z;X,Y) = beta(Z,Y,X)
@ B-freq = 0.059600  C-freq = 0.079467     beta(X;X,Y) = beta(X,Y,X)
@ B-freq = 0.059600  C-freq = 0.079467     beta(Y;X,Y) = beta(Y,Y,X)
@ B-freq = 0.059600  C-freq = 0.079467     beta(Z;X,Y) = beta(Z,Y,X)
@ B-freq = 0.079467  C-freq = 0.079467     beta(X;X,Y) = beta(X,Y,X)
@ B-freq = 0.079467  C-freq = 0.079467     beta(Y;X,Y) = beta(Y,Y,X)
@ B-freq = 0.079467  C-freq = 0.079467     beta(Z;X,Y) = beta(Z,Y,X)
@ B-freq = 0.000000  C-freq = 0.079467     beta(X;Y,Y) = beta(X,Y,Y)
@ B-freq = 0.000000  C-freq = 0.079467     beta(Y;Y,Y) = beta(Y,Y,Y)
@ B-freq = 0.000000  C-freq = 0.079467     beta(Z;Y,Y) = beta(Z,Y,Y)
@ B-freq = 0.019867  C-freq = 0.079467     beta(X;Y,Y) = beta(X,Y,Y)
@ B-freq = 0.019867  C-freq = 0.079467     beta(Y;Y,Y) = beta(Y,Y,Y)
@ B-freq = 0.019867  C-freq = 0.079467     beta(Z;Y,Y) = beta(Z,Y,Y)
@ B-freq = 0.039733  C-freq = 0.079467     beta(X;Y,Y) = beta(X,Y,Y)
@ B-freq = 0.039733  C-freq = 0.079467     beta(Y;Y,Y) = beta(Y,Y,Y)
@ B-freq = 0.039733  C-freq = 0.079467     beta(Z;Y,Y) = beta(Z,Y,Y)
@ B-freq = 0.059600  C-freq = 0.079467     beta(X;Y,Y) = beta(X,Y,Y)
@ B-freq = 0.059600  C-freq = 0.079467     beta(Y;Y,Y) = beta(Y,Y,Y)
@ B-freq = 0.059600  C-freq = 0.079467     beta(Z;Y,Y) = beta(Z,Y,Y)
@ B-freq = 0.079467  C-freq = 0.079467     beta(X;Y,Y) =     -0.00000000
@ B-freq = 0.079467  C-freq = 0.079467     beta(Y;Y,Y) =      0.00282055
@ B-freq = 0.079467  C-freq = 0.079467     beta(Z;Y,Y) =     14.16361589
@ B-freq = 0.000000  C-freq = 0.079467     beta(X;Z,Y) =      0.00000000
@ B-freq = 0.000000  C-freq = 0.079467     beta(Y;Z,Y) =     12.77244348
@ B-freq = 0.000000  C-freq = 0.079467     beta(Z;Z,Y) =     -0.00127018
@ B-freq = 0.019867  C-freq = 0.079467     beta(X;Z,Y) =      0.00000000
@ B-freq = 0.019867  C-freq = 0.079467     beta(Y;Z,Y) =     12.97757136
@ B-freq = 0.019867  C-freq = 0.079467     beta(Z;Z,Y) =     -0.00154398
@ B-freq = 0.039733  C-freq = 0.079467     beta(X;Z,Y) =      0.00000000
@ B-freq = 0.039733  C-freq = 0.079467     beta(Y;Z,Y) =     13.27222455
@ B-freq = 0.039733  C-freq = 0.079467     beta(Z;Z,Y) =     -0.00196204
@ B-freq = 0.059600  C-freq = 0.079467     beta(X;Z,Y) =      0.00000000
@ B-freq = 0.059600  C-freq = 0.079467     beta(Y;Z,Y) =     13.66689050
@ B-freq = 0.059600  C-freq = 0.079467     beta(Z;Z,Y) =     -0.00256575
@ B-freq = 0.079467  C-freq = 0.079467     beta(X;Z,Y) =      0.00000000
@ B-freq = 0.079467  C-freq = 0.079467     beta(Y;Z,Y) =     14.17672035
@ B-freq = 0.079467  C-freq = 0.079467     beta(Z;Z,Y) =     -0.00341972
@ B-freq = 0.000000  C-freq = 0.000000     beta(X;X,Z) = beta(Z,X,X)
@ B-freq = 0.000000  C-freq = 0.000000     beta(Y;X,Z) = beta(Z,Y,X)
@ B-freq = 0.000000  C-freq = 0.000000     beta(Z;X,Z) = beta(Z,Z,X)
@ B-freq = 0.019867  C-freq = 0.000000     beta(X;X,Z) = beta(X,Z,X)
@ B-freq = 0.019867  C-freq = 0.000000     beta(Y;X,Z) = beta(Y,Z,X)
@ B-freq = 0.019867  C-freq = 0.000000     beta(Z;X,Z) = beta(Z,Z,X)
@ B-freq = 0.039733  C-freq = 0.000000     beta(X;X,Z) = beta(X,Z,X)
@ B-freq = 0.039733  C-freq = 0.000000     beta(Y;X,Z) = beta(Y,Z,X)
@ B-freq = 0.039733  C-freq = 0.000000     beta(Z;X,Z) = beta(Z,Z,X)
@ B-freq = 0.059600  C-freq = 0.000000     beta(X;X,Z) = beta(X,Z,X)
@ B-freq = 0.059600  C-freq = 0.000000     beta(Y;X,Z) = beta(Y,Z,X)
@ B-freq = 0.059600  C-freq = 0.000000     beta(Z;X,Z) = beta(Z,Z,X)
@ B-freq = 0.079467  C-freq = 0.000000     beta(X;X,Z) = beta(X,Z,X)
@ B-freq = 0.079467  C-freq = 0.000000     beta(Y;X,Z) = beta(Y,Z,X)
@ B-freq = 0.079467  C-freq = 0.000000     beta(Z;X,Z) = beta(Z,Z,X)
@ B-freq = 0.000000  C-freq = 0.000000     beta(X;Y,Z) = beta(Z,Y,X)
@ B-freq = 0.000000  C-freq = 0.000000     beta(Y;Y,Z) = beta(Z,Y,Y)
@ B-freq = 0.000000  C-freq = 0.000000     beta(Z;Y,Z) = beta(Z,Z,Y)
@ B-freq = 0.019867  C-freq = 0.000000     beta(X;Y,Z) = beta(X,Z,Y)
@ B-freq = 0.019867  C-freq = 0.000000     beta(Y;Y,Z) = beta(Y,Z,Y)
@ B-freq = 0.019867  C-freq = 0.000000     beta(Z;Y,Z) = beta(Z,Z,Y)
@ B-freq = 0.039733  C-freq = 0.000000     beta(X;Y,Z) = beta(X,Z,Y)
@ B-freq = 0.039733  C-freq = 0.000000     beta(Y;Y,Z) = beta(Y,Z,Y)
@ B-freq = 0.039733  C-freq = 0.000000     beta(Z;Y,Z) = beta(Z,Z,Y)
@ B-freq = 0.059600  C-freq = 0.000000     beta(X;Y,Z) = beta(X,Z,Y)
@ B-freq = 0.059600  C-freq = 0.000000     beta(Y;Y,Z) = beta(Y,Z,Y)
@ B-freq = 0.059600  C-freq = 0.000000     beta(Z;Y,Z) = beta(Z,Z,Y)
@ B-freq = 0.079467  C-freq = 0.000000     beta(X;Y,Z) = beta(X,Z,Y)
@ B-freq = 0.079467  C-freq = 0.000000     beta(Y;Y,Z) = beta(Y,Z,Y)
@ B-freq = 0.079467  C-freq = 0.000000     beta(Z;Y,Z) = beta(Z,Z,Y)
@ B-freq = 0.000000  C-freq = 0.000000     beta(X;Z,Z) = beta(Z,Z,X)
@ B-freq = 0.000000  C-freq = 0.000000     beta(Y;Z,Z) = beta(Z,Z,Y)
@ B-freq = 0.000000  C-freq = 0.000000     beta(X;Z,Z) =      0.00000000
@ B-freq = 0.000000  C-freq = 0.000000     beta(Y;Z,Z) =     -0.00114200
@ B-freq = 0.000000  C-freq = 0.000000     beta(Z;Z,Z) =      5.07039873
@ B-freq = 0.019867  C-freq = 0.000000     beta(X;Z,Z) =      0.00000000
@ B-freq = 0.019867  C-freq = 0.000000     beta(Y;Z,Z) =     -0.00114919
@ B-freq = 0.019867  C-freq = 0.000000     beta(Z;Z,Z) =      5.09146734
@ B-freq = 0.039733  C-freq = 0.000000     beta(X;Z,Z) =      0.00000000
@ B-freq = 0.039733  C-freq = 0.000000     beta(Y;Z,Z) =     -0.00117139
@ B-freq = 0.039733  C-freq = 0.000000     beta(Z;Z,Z) =      5.15574993
@ B-freq = 0.059600  C-freq = 0.000000     beta(X;Z,Z) =      0.00000000
@ B-freq = 0.059600  C-freq = 0.000000     beta(Y;Z,Z) =     -0.00121054
@ B-freq = 0.059600  C-freq = 0.000000     beta(Z;Z,Z) =      5.26660354
@ B-freq = 0.079467  C-freq = 0.000000     beta(X;Z,Z) =      0.00000000
@ B-freq = 0.079467  C-freq = 0.000000     beta(Y;Z,Z) =     -0.00127018
@ B-freq = 0.079467  C-freq = 0.000000     beta(Z;Z,Z) =      5.43007139
@ B-freq = 0.000000  C-freq = 0.019867     beta(X;X,Z) = beta(X,Z,X)
@ B-freq = 0.000000  C-freq = 0.019867     beta(Y;X,Z) = beta(Y,Z,X)
@ B-freq = 0.000000  C-freq = 0.019867     beta(Z;X,Z) = beta(Z,Z,X)
@ B-freq = 0.019867  C-freq = 0.019867     beta(X;X,Z) = beta(X,Z,X)
@ B-freq = 0.019867  C-freq = 0.019867     beta(Y;X,Z) = beta(Y,Z,X)
@ B-freq = 0.019867  C-freq = 0.019867     beta(Z;X,Z) = beta(Z,Z,X)
@ B-freq = 0.039733  C-freq = 0.019867     beta(X;X,Z) = beta(X,Z,X)
@ B-freq = 0.039733  C-freq = 0.019867     beta(Y;X,Z) = beta(Y,Z,X)
@ B-freq = 0.039733  C-freq = 0.019867     beta(Z;X,Z) = beta(Z,Z,X)
@ B-freq = 0.059600  C-freq = 0.019867     beta(X;X,Z) = beta(X,Z,X)
@ B-freq = 0.059600  C-freq = 0.019867     beta(Y;X,Z) = beta(Y,Z,X)
@ B-freq = 0.059600  C-freq = 0.019867     beta(Z;X,Z) = beta(Z,Z,X)
@ B-freq = 0.079467  C-freq = 0.019867     beta(X;X,Z) = beta(X,Z,X)
@ B-freq = 0.079467  C-freq = 0.019867     beta(Y;X,Z) = beta(Y,Z,X)
@ B-freq = 0.079467  C-freq = 0.019867     beta(Z;X,Z) = beta(Z,Z,X)
@ B-freq = 0.000000  C-freq = 0.019867     beta(X;Y,Z) = beta(X,Z,Y)
@ B-freq = 0.000000  C-freq = 0.019867     beta(Y;Y,Z) = beta(Y,Z,Y)
@ B-freq = 0.000000  C-freq = 0.019867     beta(Z;Y,Z) = beta(Z,Z,Y)
@ B-freq = 0.019867  C-freq = 0.019867     beta(X;Y,Z) = beta(X,Z,Y)
@ B-freq = 0.019867  C-freq = 0.019867     beta(Y;Y,Z) = beta(Y,Z,Y)
@ B-freq = 0.019867  C-freq = 0.019867     beta(Z;Y,Z) = beta(Z,Z,Y)
@ B-freq = 0.039733  C-freq = 0.019867     beta(X;Y,Z) = beta(X,Z,Y)
@ B-freq = 0.039733  C-freq = 0.019867     beta(Y;Y,Z) = beta(Y,Z,Y)
@ B-freq = 0.039733  C-freq = 0.019867     beta(Z;Y,Z) = beta(Z,Z,Y)
@ B-freq = 0.059600  C-freq = 0.019867     beta(X;Y,Z) = beta(X,Z,Y)
@ B-freq = 0.059600  C-freq = 0.019867     beta(Y;Y,Z) = beta(Y,Z,Y)
@ B-freq = 0.059600  C-freq = 0.019867     beta(Z;Y,Z) = beta(Z,Z,Y)
@ B-freq = 0.079467  C-freq = 0.019867     beta(X;Y,Z) = beta(X,Z,Y)
@ B-freq = 0.079467  C-freq = 0.019867     beta(Y;Y,Z) = beta(Y,Z,Y)
@ B-freq = 0.079467  C-freq = 0.019867     beta(Z;Y,Z) = beta(Z,Z,Y)
@ B-freq = 0.000000  C-freq = 0.019867     beta(X;Z,Z) = beta(X,Z,Z)
@ B-freq = 0.000000  C-freq = 0.019867     beta(Y;Z,Z) = beta(Y,Z,Z)
@ B-freq = 0.000000  C-freq = 0.019867     beta(Z;Z,Z) = beta(Z,Z,Z)
@ B-freq = 0.019867  C-freq = 0.019867     beta(X;Z,Z) =      0.00000000
@ B-freq = 0.019867  C-freq = 0.019867     beta(Y;Z,Z) =     -0.00112420
@ B-freq = 0.019867  C-freq = 0.019867     beta(Z;Z,Z) =      5.13414111
@ B-freq = 0.039733  C-freq = 0.019867     beta(X;Z,Z) =      0.00000000
@ B-freq = 0.039733  C-freq = 0.019867     beta(Y;Z,Z) =     -0.00111264
@ B-freq = 0.039733  C-freq = 0.019867     beta(Z;Z,Z) =      5.22169382
@ B-freq = 0.059600  C-freq = 0.019867     beta(X;Z,Z) =      0.00000000
@ B-freq = 0.059600  C-freq = 0.019867     beta(Y;Z,Z) =     -0.00111511
@ B-freq = 0.059600  C-freq = 0.019867     beta(Z;Z,Z) =      5.35879892
@ B-freq = 0.079467  C-freq = 0.019867     beta(X;Z,Z) =      0.00000000
@ B-freq = 0.079467  C-freq = 0.019867     beta(Y;Z,Z) =     -0.00113360
@ B-freq = 0.079467  C-freq = 0.019867     beta(Z;Z,Z) =      5.55317810
@ B-freq = 0.000000  C-freq = 0.039733     beta(X;X,Z) = beta(X,Z,X)
@ B-freq = 0.000000  C-freq = 0.039733     beta(Y;X,Z) = beta(Y,Z,X)
@ B-freq = 0.000000  C-freq = 0.039733     beta(Z;X,Z) = beta(Z,Z,X)
@ B-freq = 0.019867  C-freq = 0.039733     beta(X;X,Z) = beta(X,Z,X)
@ B-freq = 0.019867  C-freq = 0.039733     beta(Y;X,Z) = beta(Y,Z,X)
@ B-freq = 0.019867  C-freq = 0.039733     beta(Z;X,Z) = beta(Z,Z,X)
@ B-freq = 0.039733  C-freq = 0.039733     beta(X;X,Z) = beta(X,Z,X)
@ B-freq = 0.039733  C-freq = 0.039733     beta(Y;X,Z) = beta(Y,Z,X)
@ B-freq = 0.039733  C-freq = 0.039733     beta(Z;X,Z) = beta(Z,Z,X)
@ B-freq = 0.059600  C-freq = 0.039733     beta(X;X,Z) = beta(X,Z,X)
@ B-freq = 0.059600  C-freq = 0.039733     beta(Y;X,Z) = beta(Y,Z,X)
@ B-freq = 0.059600  C-freq = 0.039733     beta(Z;X,Z) = beta(Z,Z,X)
@ B-freq = 0.079467  C-freq = 0.039733     beta(X;X,Z) = beta(X,Z,X)
@ B-freq = 0.079467  C-freq = 0.039733     beta(Y;X,Z) = beta(Y,Z,X)
@ B-freq = 0.079467  C-freq = 0.039733     beta(Z;X,Z) = beta(Z,Z,X)
@ B-freq = 0.000000  C-freq = 0.039733     beta(X;Y,Z) = beta(X,Z,Y)
@ B-freq = 0.000000  C-freq = 0.039733     beta(Y;Y,Z) = beta(Y,Z,Y)
@ B-freq = 0.000000  C-freq = 0.039733     beta(Z;Y,Z) = beta(Z,Z,Y)
@ B-freq = 0.019867  C-freq = 0.039733     beta(X;Y,Z) = beta(X,Z,Y)
@ B-freq = 0.019867  C-freq = 0.039733     beta(Y;Y,Z) = beta(Y,Z,Y)
@ B-freq = 0.019867  C-freq = 0.039733     beta(Z;Y,Z) = beta(Z,Z,Y)
@ B-freq = 0.039733  C-freq = 0.039733     beta(X;Y,Z) = beta(X,Z,Y)
@ B-freq = 0.039733  C-freq = 0.039733     beta(Y;Y,Z) = beta(Y,Z,Y)
@ B-freq = 0.039733  C-freq = 0.039733     beta(Z;Y,Z) = beta(Z,Z,Y)
@ B-freq = 0.059600  C-freq = 0.039733     beta(X;Y,Z) = beta(X,Z,Y)
@ B-freq = 0.059600  C-freq = 0.039733     beta(Y;Y,Z) = beta(Y,Z,Y)
@ B-freq = 0.059600  C-freq = 0.039733     beta(Z;Y,Z) = beta(Z,Z,Y)
@ B-freq = 0.079467  C-freq = 0.039733     beta(X;Y,Z) = beta(X,Z,Y)
@ B-freq = 0.079467  C-freq = 0.039733     beta(Y;Y,Z) = beta(Y,Z,Y)
@ B-freq = 0.079467  C-freq = 0.039733     beta(Z;Y,Z) = beta(Z,Z,Y)
@ B-freq = 0.000000  C-freq = 0.039733     beta(X;Z,Z) = beta(X,Z,Z)
@ B-freq = 0.000000  C-freq = 0.039733     beta(Y;Z,Z) = beta(Y,Z,Z)
@ B-freq = 0.000000  C-freq = 0.039733     beta(Z;Z,Z) = beta(Z,Z,Z)
@ B-freq = 0.019867  C-freq = 0.039733     beta(X;Z,Z) = beta(X,Z,Z)
@ B-freq = 0.019867  C-freq = 0.039733     beta(Y;Z,Z) = beta(Y,Z,Z)
@ B-freq = 0.019867  C-freq = 0.039733     beta(Z;Z,Z) = beta(Z,Z,Z)
@ B-freq = 0.039733  C-freq = 0.039733     beta(X;Z,Z) =      0.00000000
@ B-freq = 0.039733  C-freq = 0.039733     beta(Y;Z,Z) =     -0.00106489
@ B-freq = 0.039733  C-freq = 0.039733     beta(Z;Z,Z) =      5.33545791
@ B-freq = 0.059600  C-freq = 0.039733     beta(X;Z,Z) =      0.00000000
@ B-freq = 0.059600  C-freq = 0.039733     beta(Y;Z,Z) =     -0.00102720
@ B-freq = 0.059600  C-freq = 0.039733     beta(Z;Z,Z) =      5.50332191
@ B-freq = 0.079467  C-freq = 0.039733     beta(X;Z,Z) =      0.00000000
@ B-freq = 0.079467  C-freq = 0.039733     beta(Y;Z,Z) =     -0.00099974
@ B-freq = 0.079467  C-freq = 0.039733     beta(Z;Z,Z) =      5.73517034
@ B-freq = 0.000000  C-freq = 0.059600     beta(X;X,Z) = beta(X,Z,X)
@ B-freq = 0.000000  C-freq = 0.059600     beta(Y;X,Z) = beta(Y,Z,X)
@ B-freq = 0.000000  C-freq = 0.059600     beta(Z;X,Z) = beta(Z,Z,X)
@ B-freq = 0.019867  C-freq = 0.059600     beta(X;X,Z) = beta(X,Z,X)
@ B-freq = 0.019867  C-freq = 0.059600     beta(Y;X,Z) = beta(Y,Z,X)
@ B-freq = 0.019867  C-freq = 0.059600     beta(Z;X,Z) = beta(Z,Z,X)
@ B-freq = 0.039733  C-freq = 0.059600     beta(X;X,Z) = beta(X,Z,X)
@ B-freq = 0.039733  C-freq = 0.059600     beta(Y;X,Z) = beta(Y,Z,X)
@ B-freq = 0.039733  C-freq = 0.059600     beta(Z;X,Z) = beta(Z,Z,X)
@ B-freq = 0.059600  C-freq = 0.059600     beta(X;X,Z) = beta(X,Z,X)
@ B-freq = 0.059600  C-freq = 0.059600     beta(Y;X,Z) = beta(Y,Z,X)
@ B-freq = 0.059600  C-freq = 0.059600     beta(Z;X,Z) = beta(Z,Z,X)
@ B-freq = 0.079467  C-freq = 0.059600     beta(X;X,Z) = beta(X,Z,X)
@ B-freq = 0.079467  C-freq = 0.059600     beta(Y;X,Z) = beta(Y,Z,X)
@ B-freq = 0.079467  C-freq = 0.059600     beta(Z;X,Z) = beta(Z,Z,X)
@ B-freq = 0.000000  C-freq = 0.059600     beta(X;Y,Z) = beta(X,Z,Y)
@ B-freq = 0.000000  C-freq = 0.059600     beta(Y;Y,Z) = beta(Y,Z,Y)
@ B-freq = 0.000000  C-freq = 0.059600     beta(Z;Y,Z) = beta(Z,Z,Y)
@ B-freq = 0.019867  C-freq = 0.059600     beta(X;Y,Z) = beta(X,Z,Y)
@ B-freq = 0.019867  C-freq = 0.059600     beta(Y;Y,Z) = beta(Y,Z,Y)
@ B-freq = 0.019867  C-freq = 0.059600     beta(Z;Y,Z) = beta(Z,Z,Y)
@ B-freq = 0.039733  C-freq = 0.059600     beta(X;Y,Z) = beta(X,Z,Y)
@ B-freq = 0.039733  C-freq = 0.059600     beta(Y;Y,Z) = beta(Y,Z,Y)
@ B-freq = 0.039733  C-freq = 0.059600     beta(Z;Y,Z) = beta(Z,Z,Y)
@ B-freq = 0.059600  C-freq = 0.059600     beta(X;Y,Z) = beta(X,Z,Y)
@ B-freq = 0.059600  C-freq = 0.059600     beta(Y;Y,Z) = beta(Y,Z,Y)
@ B-freq = 0.059600  C-freq = 0.059600     beta(Z;Y,Z) = beta(Z,Z,Y)
@ B-freq = 0.079467  C-freq = 0.059600     beta(X;Y,Z) = beta(X,Z,Y)
@ B-freq = 0.079467  C-freq = 0.059600     beta(Y;Y,Z) = beta(Y,Z,Y)
@ B-freq = 0.079467  C-freq = 0.059600     beta(Z;Y,Z) = beta(Z,Z,Y)
@ B-freq = 0.000000  C-freq = 0.059600     beta(X;Z,Z) = beta(X,Z,Z)
@ B-freq = 0.000000  C-freq = 0.059600     beta(Y;Z,Z) = beta(Y,Z,Z)
@ B-freq = 0.000000  C-freq = 0.059600     beta(Z;Z,Z) = beta(Z,Z,Z)
@ B-freq = 0.019867  C-freq = 0.059600     beta(X;Z,Z) = beta(X,Z,Z)
@ B-freq = 0.019867  C-freq = 0.059600     beta(Y;Z,Z) = beta(Y,Z,Z)
@ B-freq = 0.019867  C-freq = 0.059600     beta(Z;Z,Z) = beta(Z,Z,Z)
@ B-freq = 0.039733  C-freq = 0.059600     beta(X;Z,Z) = beta(X,Z,Z)
@ B-freq = 0.039733  C-freq = 0.059600     beta(Y;Z,Z) = beta(Y,Z,Z)
@ B-freq = 0.039733  C-freq = 0.059600     beta(Z;Z,Z) = beta(Z,Z,Z)
@ B-freq = 0.059600  C-freq = 0.059600     beta(X;Z,Z) =      0.00000000
@ B-freq = 0.059600  C-freq = 0.059600     beta(Y;Z,Z) =     -0.00094406
@ B-freq = 0.059600  C-freq = 0.059600     beta(Z;Z,Z) =      5.70852256
@ B-freq = 0.079467  C-freq = 0.059600     beta(X;Z,Z) =      0.00000000
@ B-freq = 0.079467  C-freq = 0.059600     beta(Y;Z,Z) =     -0.00086357
@ B-freq = 0.079467  C-freq = 0.059600     beta(Z;Z,Z) =      5.98719468
@ B-freq = 0.000000  C-freq = 0.079467     beta(X;X,Z) = beta(X,Z,X)
@ B-freq = 0.000000  C-freq = 0.079467     beta(Y;X,Z) = beta(Y,Z,X)
@ B-freq = 0.000000  C-freq = 0.079467     beta(Z;X,Z) = beta(Z,Z,X)
@ B-freq = 0.019867  C-freq = 0.079467     beta(X;X,Z) = beta(X,Z,X)
@ B-freq = 0.019867  C-freq = 0.079467     beta(Y;X,Z) = beta(Y,Z,X)
@ B-freq = 0.019867  C-freq = 0.079467     beta(Z;X,Z) = beta(Z,Z,X)
@ B-freq = 0.039733  C-freq = 0.079467     beta(X;X,Z) = beta(X,Z,X)
@ B-freq = 0.039733  C-freq = 0.079467     beta(Y;X,Z) = beta(Y,Z,X)
@ B-freq = 0.039733  C-freq = 0.079467     beta(Z;X,Z) = beta(Z,Z,X)
@ B-freq = 0.059600  C-freq = 0.079467     beta(X;X,Z) = beta(X,Z,X)
@ B-freq = 0.059600  C-freq = 0.079467     beta(Y;X,Z) = beta(Y,Z,X)
@ B-freq = 0.059600  C-freq = 0.079467     beta(Z;X,Z) = beta(Z,Z,X)
@ B-freq = 0.079467  C-freq = 0.079467     beta(X;X,Z) = beta(X,Z,X)
@ B-freq = 0.079467  C-freq = 0.079467     beta(Y;X,Z) = beta(Y,Z,X)
@ B-freq = 0.079467  C-freq = 0.079467     beta(Z;X,Z) = beta(Z,Z,X)
@ B-freq = 0.000000  C-freq = 0.079467     beta(X;Y,Z) = beta(X,Z,Y)
@ B-freq = 0.000000  C-freq = 0.079467     beta(Y;Y,Z) = beta(Y,Z,Y)
@ B-freq = 0.000000  C-freq = 0.079467     beta(Z;Y,Z) = beta(Z,Z,Y)
@ B-freq = 0.019867  C-freq = 0.079467     beta(X;Y,Z) = beta(X,Z,Y)
@ B-freq = 0.019867  C-freq = 0.079467     beta(Y;Y,Z) = beta(Y,Z,Y)
@ B-freq = 0.019867  C-freq = 0.079467     beta(Z;Y,Z) = beta(Z,Z,Y)
@ B-freq = 0.039733  C-freq = 0.079467     beta(X;Y,Z) = beta(X,Z,Y)
@ B-freq = 0.039733  C-freq = 0.079467     beta(Y;Y,Z) = beta(Y,Z,Y)
@ B-freq = 0.039733  C-freq = 0.079467     beta(Z;Y,Z) = beta(Z,Z,Y)
@ B-freq = 0.059600  C-freq = 0.079467     beta(X;Y,Z) = beta(X,Z,Y)
@ B-freq = 0.059600  C-freq = 0.079467     beta(Y;Y,Z) = beta(Y,Z,Y)
@ B-freq = 0.059600  C-freq = 0.079467     beta(Z;Y,Z) = beta(Z,Z,Y)
@ B-freq = 0.079467  C-freq = 0.079467     beta(X;Y,Z) = beta(X,Z,Y)
@ B-freq = 0.079467  C-freq = 0.079467     beta(Y;Y,Z) = beta(Y,Z,Y)
@ B-freq = 0.079467  C-freq = 0.079467     beta(Z;Y,Z) = beta(Z,Z,Y)
@ B-freq = 0.000000  C-freq = 0.079467     beta(X;Z,Z) = beta(X,Z,Z)
@ B-freq = 0.000000  C-freq = 0.079467     beta(Y;Z,Z) = beta(Y,Z,Z)
@ B-freq = 0.000000  C-freq = 0.079467     beta(Z;Z,Z) = beta(Z,Z,Z)
@ B-freq = 0.019867  C-freq = 0.079467     beta(X;Z,Z) = beta(X,Z,Z)
@ B-freq = 0.019867  C-freq = 0.079467     beta(Y;Z,Z) = beta(Y,Z,Z)
@ B-freq = 0.019867  C-freq = 0.079467     beta(Z;Z,Z) = beta(Z,Z,Z)
@ B-freq = 0.039733  C-freq = 0.079467     beta(X;Z,Z) = beta(X,Z,Z)
@ B-freq = 0.039733  C-freq = 0.079467     beta(Y;Z,Z) = beta(Y,Z,Z)
@ B-freq = 0.039733  C-freq = 0.079467     beta(Z;Z,Z) = beta(Z,Z,Z)
@ B-freq = 0.059600  C-freq = 0.079467     beta(X;Z,Z) = beta(X,Z,Z)
@ B-freq = 0.059600  C-freq = 0.079467     beta(Y;Z,Z) = beta(Y,Z,Z)
@ B-freq = 0.059600  C-freq = 0.079467     beta(Z;Z,Z) = beta(Z,Z,Z)
@ B-freq = 0.079467  C-freq = 0.079467     beta(X;Z,Z) =      0.00000000
@ B-freq = 0.079467  C-freq = 0.079467     beta(Y;Z,Z) =     -0.00072006
@ B-freq = 0.079467  C-freq = 0.079467     beta(Z;Z,Z) =      6.32611393

  Total CPU  time used in RESPONSE:   3.04 seconds
  Total wall time used in RESPONSE:   3.05 seconds


                   .-------------------------------------------.
                   | End of Dynamic Property Section (RESPONS) |
                   `-------------------------------------------'

  Total CPU  time used in DALTON:   3.23 seconds
  Total wall time used in DALTON:   3.25 seconds

 
     Date and time (Linux)  : Thu Sep  7 21:32:28 2023
     Host name              : sn-mem                                  
