

     ************************************************************************
     *************** Dalton - An Electronic Structure Program ***************
     ************************************************************************

    This is output from DALTON release Dalton2020.0 (2020)
         ( Web site: http://daltonprogram.org )

   ----------------------------------------------------------------------------

    NOTE:
     
    Dalton is an experimental code for the evaluation of molecular
    properties using (MC)SCF, DFT, CI, and CC wave functions.
    The authors accept no responsibility for the performance of
    the code or for the correctness of the results.
     
    The code (in whole or part) is provided under a licence and
    is not to be reproduced for further distribution without
    the written permission of the authors or their representatives.
     
    See the home page "http://daltonprogram.org" for further information.
     
    If results obtained with this code are published,
    the appropriate citations would be both of:
     
       K. Aidas, C. Angeli, K. L. Bak, V. Bakken, R. Bast,
       L. Boman, O. Christiansen, R. Cimiraglia, S. Coriani,
       P. Dahle, E. K. Dalskov, U. Ekstroem,
       T. Enevoldsen, J. J. Eriksen, P. Ettenhuber, B. Fernandez,
       L. Ferrighi, H. Fliegl, L. Frediani, K. Hald, A. Halkier,
       C. Haettig, H. Heiberg, T. Helgaker, A. C. Hennum,
       H. Hettema, E. Hjertenaes, S. Hoest, I.-M. Hoeyvik,
       M. F. Iozzi, B. Jansik, H. J. Aa. Jensen, D. Jonsson,
       P. Joergensen, J. Kauczor, S. Kirpekar,
       T. Kjaergaard, W. Klopper, S. Knecht, R. Kobayashi, H. Koch,
       J. Kongsted, A. Krapp, K. Kristensen, A. Ligabue,
       O. B. Lutnaes, J. I. Melo, K. V. Mikkelsen, R. H. Myhre,
       C. Neiss, C. B. Nielsen, P. Norman, J. Olsen,
       J. M. H. Olsen, A. Osted, M. J. Packer, F. Pawlowski,
       T. B. Pedersen, P. F. Provasi, S. Reine, Z. Rinkevicius,
       T. A. Ruden, K. Ruud, V. Rybkin, P. Salek, C. C. M. Samson,
       A. Sanchez de Meras, T. Saue, S. P. A. Sauer,
       B. Schimmelpfennig, K. Sneskov, A. H. Steindal,
       K. O. Sylvester-Hvid, P. R. Taylor, A. M. Teale,
       E. I. Tellgren, D. P. Tew, A. J. Thorvaldsen, L. Thoegersen,
       O. Vahtras, M. A. Watson, D. J. D. Wilson, M. Ziolkowski
       and H. Agren,
       "The Dalton quantum chemistry program system",
       WIREs Comput. Mol. Sci. 2014, 4:269–284 (doi: 10.1002/wcms.1172)
     
    and
     
       Dalton, a molecular electronic structure program,
       Release Dalton2020.0 (2020), see http://daltonprogram.org
   ----------------------------------------------------------------------------

    Authors in alphabetical order (Major contribution(s) in parenthesis):

  Kestutis Aidas,           Vilnius University,           Lithuania   (QM/MM)
  Celestino Angeli,         University of Ferrara,        Italy       (NEVPT2)
  Keld L. Bak,              UNI-C,                        Denmark     (AOSOPPA, non-adiabatic coupling, magnetic properties)
  Vebjoern Bakken,          University of Oslo,           Norway      (DALTON; geometry optimizer, symmetry detection)
  Radovan Bast,             UiT The Arctic U. of Norway,  Norway      (DALTON installation and execution frameworks)
  Pablo Baudin,             University of Valencia,       Spain       (Cholesky excitation energies)
  Linus Boman,              NTNU,                         Norway      (Cholesky decomposition and subsystems)
  Bruno N. Cabral Tenorio,  Technical Univ. of Denmark,   Denmark     (Lanczos-based CC methods)
  Ove Christiansen,         Aarhus University,            Denmark     (CC module)
  Renzo Cimiraglia,         University of Ferrara,        Italy       (NEVPT2)
  Sonia Coriani,            Technical Univ. of Denmark,   Denmark     (CC and RESPONS modules)
  Janusz Cukras,            University of Warsaw,         Poland      (MChD in RESPONS)
  Paal Dahle,               University of Oslo,           Norway      (Parallelization)
  Erik K. Dalskov,          UNI-C,                        Denmark     (SOPPA)
  Thomas Enevoldsen,        Univ. of Southern Denmark,    Denmark     (SOPPA)
  Janus J. Eriksen,         Aarhus University,            Denmark     (Polarizable embedding, TDA)
  Rasmus Faber,             Technical Univ. of Denmark,   Denmark     (Vib.avg. NMR w. SOPPA, parallel AO-SOPPA, CVS-CC and EOMCC)
  Tobias Fahleson,          KTH Stockholm,                Sweden      (Damped cubic response)
  Berta Fernandez,          U. of Santiago de Compostela, Spain       (Doublet spin, ESR in RESPONS)
  Lara Ferrighi,            Aarhus University,            Denmark     (PCM Cubic response)
  Heike Fliegl,             University of Oslo,           Norway      (CCSD(R12))
  Luca Frediani,            UiT The Arctic U. of Norway,  Norway      (PCM)
  Emmanuel Fromager,        Univ. Strasbourg,             France      (MC-srDFT)
  Bin Gao,                  UiT The Arctic U. of Norway,  Norway      (Gen1Int library)
  Andre S. P. Gomes,        CNRS/Universite de Lille,     France      (Frozen density embedding)
  Christof Haettig,         Ruhr-University Bochum,       Germany     (CC module)
  Kasper Hald,              Aarhus University,            Denmark     (CC module)
  Asger Halkier,            Aarhus University,            Denmark     (CC module)
  Frederik Beyer Hansen,    University of Copenhagen,     Denmark     (Parallel AO-SOPPA)
  Erik D. Hedegaard,        Univ. of Southern Denmark,    Denmark     (Polarizable embedding, QM/MM, and MC-srDFT)
  Hanne Heiberg,            University of Oslo,           Norway      (Geometry analysis, selected one-electron integrals)
  Trygve Helgaker,          University of Oslo,           Norway      (DALTON; ABACUS, ERI, DFT modules, London, and much more)
  Alf Christian Hennum,     University of Oslo,           Norway      (Parity violation)
  Hinne Hettema,            University of Auckland,       New Zealand (Quadratic response in RESPONS; SIRIUS supersymmetry)
  Eirik Hjertenaes,         NTNU,                         Norway      (Cholesky decomposition)
  Pi A. B. Haase,           University of Copenhagen,     Denmark     (Triplet AO-SOPPA)
  Maria Francesca Iozzi,    University of Oslo,           Norway      (RPA)
  Christoph Jacob           TU Braunschweig               Germany     (Frozen density embedding)
  Brano Jansik              Technical Univ. of Ostrava    Czech Rep.  (DFT cubic response)
  Hans Joergen Aa. Jensen,  Univ. of Southern Denmark,    Denmark     (DALTON; SIRIUS, RESPONS, ABACUS, MC-srDFT, and much more)
  Dan Jonsson,              UiT The Arctic U. of Norway,  Norway      (Cubic response in RESPONS module)
  Poul Joergensen,          Aarhus University,            Denmark     (RESPONS, ABACUS, and CC modules)
  Maciej Kaminski,          University of Warsaw,         Poland      (CPPh in RESPONS)
  Joanna Kauczor,           Linkoeping University,        Sweden      (Complex polarization propagator (CPP) module)
  Sheela Kirpekar,          Univ. of Southern Denmark,    Denmark     (Mass-velocity & Darwin integrals)
  Erik Kjellgren,           Univ. of Southern Denmark,    Denmark     (MC-srDFT)
  Wim Klopper,              KIT Karlsruhe,                Germany     (R12 code in CC, SIRIUS, and ABACUS modules)
  Stefan Knecht,            ETH Zurich,                   Switzerland (Parallel CI and MCSCF, MC-srDFT)
  Rika Kobayashi,           Australian National Univ.,    Australia   (DIIS in CC, London in MCSCF)
  Henrik Koch,              NTNU,                         Norway      (CC module, Cholesky decomposition)
  Jacob Kongsted,           Univ. of Southern Denmark,    Denmark     (Polarizable embedding, polarizable density embedding, QM/MM)
  Andrea Ligabue,           University of Modena,         Italy       (CTOCD, AOSOPPA)
  Nanna H. List             Univ. of Southern Denmark,    Denmark     (Polarizable embedding)
  Ola B. Lutnaes,           University of Oslo,           Norway      (DFT Hessian)
  Juan I. Melo,             University of Buenos Aires,   Argentina   (LRESC, Relativistic Effects on NMR Shieldings)
  Kurt V. Mikkelsen,        University of Copenhagen,     Denmark     (MC-SCRF and QM/MM)
  Rolf H. Myhre,            NTNU,                         Norway      (Subsystems and CC3)
  Christian Neiss,          Univ. Erlangen-Nuernberg,     Germany     (CCSD(R12))
  Christian B. Nielsen,     University of Copenhagen,     Denmark     (QM/MM)
  Patrick Norman,           KTH Stockholm,                Sweden      (Cubic response and complex frequency response in RESPONS)
  Jeppe Olsen,              Aarhus University,            Denmark     (SIRIUS CI/density modules)
  Jogvan Magnus H. Olsen,   Aarhus University,            Denmark     (Polarizable embedding and polarizable density embedding)
  Anders Osted,             Copenhagen University,        Denmark     (QM/MM)
  Martin J. Packer,         University of Sheffield,      UK          (SOPPA)
  Filip Pawlowski,          Kazimierz Wielki University,  Poland      (CC3)
  Morten N. Pedersen,       Univ. of Southern Denmark,    Denmark     (Polarizable embedding)
  Thomas B. Pedersen,       University of Oslo,           Norway      (Cholesky decomposition)
  Patricio F. Provasi,      University of Northeastern,   Argentina   (Analysis of coupling constants in localized orbitals)
  Peter Reinholdt,          Univ. of Southern Denmark,    Denmark     (Polarizable embedding and polarizable density embedding)
  Zilvinas Rinkevicius,     KTH Stockholm,                Sweden      (open-shell DFT, ESR)
  Elias Rudberg,            KTH Stockholm,                Sweden      (DFT grid and basis info)
  Torgeir A. Ruden,         University of Oslo,           Norway      (Numerical derivatives in ABACUS)
  Kenneth Ruud,             UiT The Arctic U. of Norway,  Norway      (DALTON; ABACUS magnetic properties and much more)
  Pawel Salek,              KTH Stockholm,                Sweden      (DALTON; DFT code)
  Claire C. M. Samson       University of Karlsruhe       Germany     (Boys localization, r12 integrals in ERI)
  Alfredo Sanchez de Meras, University of Valencia,       Spain       (CC module, Cholesky decomposition)
  Trond Saue,               Paul Sabatier University,     France      (direct Fock matrix construction)
  Stephan P. A. Sauer,      University of Copenhagen,     Denmark     (SOPPA(CCSD), SOPPA prop., AOSOPPA, vibrational g-factors)
  Bernd Schimmelpfennig,    Forschungszentrum Karlsruhe,  Germany     (AMFI module)
  Anna K. Schnack-Petersen, University of Copenhagen,     Denmark     (RPA(D) and HRPA(D) properties in AOSOPPA)
  Kristian Sneskov,         Aarhus University,            Denmark     (Polarizable embedding, QM/MM)
  Arnfinn H. Steindal,      UiT The Arctic U. of Norway,  Norway      (parallel QM/MM, polarizable embedding)
  Casper Steinmann,         Aalborg University,           Denmark     (QFIT, polarizable embedding)
  K. O. Sylvester-Hvid,     University of Copenhagen,     Denmark     (MC-SCRF)
  Peter R. Taylor,          VLSCI/Univ. of Melbourne,     Australia   (Symmetry handling ABACUS, integral transformation)
  Andrew M. Teale,          University of Nottingham,     England     (DFT-AC, DFT-D)
  David P. Tew,             University of Bristol,        England     (CCSD(R12))
  Julien Toulouse,          Sorbonne Univ.,               France      (MC-srDFT)
  Olav Vahtras,             KTH Stockholm,                Sweden      (Triplet response, spin-orbit, ESR, TDDFT, open-shell DFT)
  Lucas Visscher,           Vrije Universiteit Amsterdam, Netherlands (Frozen density embedding)
  David J. Wilson,          La Trobe University,          Australia   (DFT Hessian and DFT magnetizabilities)
  Hans Agren,               KTH Stockholm,                Sweden      (SIRIUS module, RESPONS, MC-SCRF solvation)
 --------------------------------------------------------------------------------

     Date and time (Linux)  : Wed Sep 13 18:54:36 2023
     Host name              : sn-mem                                  

 * Work memory size             :    64000000 =  488.28 megabytes.

 * Directories for basis set searches:
   1) /gpfs/projects/rjh/adrian/august_no_symmetry/dalton/hf/NOCl/dipole
   2) /gpfs/projects/rjh/adrian/dalton/build/basis


Compilation information
-----------------------

 Who compiled             | ahurtado
 Host                     | sn-mem
 System                   | Linux-3.10.0-1160.24.1.el7.x86_64
 CMake generator          | Unix Makefiles
 Processor                | x86_64
 64-bit integers          | OFF
 MPI                      | ON
 Fortran compiler         | /gpfs/software/intel/oneAPI/2021_4/mpi/2021.4.0/bi
                          | n/mpif90
 Fortran compiler version | GNU Fortran (GCC) 11.2.0
 C compiler               | /gpfs/software/intel/oneAPI/2021_4/mpi/2021.4.0/bi
                          | n/mpicc
 C compiler version       | gcc (GCC) 11.2.0
 C++ compiler             | /gpfs/software/intel/oneAPI/2021_4/mpi/2021.4.0/bi
                          | n/mpicxx
 C++ compiler version     | unknown
 BLAS                     | /gpfs/software/intel/oneAPI/2021_4/mkl/2021.4.0/li
                          | b/intel64/libmkl_gf_lp64.so;/gpfs/software/intel/o
                          | neAPI/2021_4/mkl/2021.4.0/lib/intel64/libmkl_seque
                          | ntial.so;/gpfs/software/intel/oneAPI/2021_4/mkl/20
                          | 21.4.0/lib/intel64/libmkl_core.so;/usr/lib64/libpt
                          | hread.so;/usr/lib64/libm.so
 LAPACK                   | /gpfs/software/intel/oneAPI/2021_4/mkl/2021.4.0/li
                          | b/intel64/libmkl_lapack95_lp64.a;/gpfs/software/in
                          | tel/oneAPI/2021_4/mkl/2021.4.0/lib/intel64/libmkl_
                          | gf_lp64.so
 Static linking           | OFF
 Last Git revision        | 66052b3af5ea7225e31178bf9a8b031913c72190
 Git branch               | (HEAD detached at Dalton2020.0)
 Configuration time       | 2023-01-11 13:33:37.731835

 * MPI parallel run using 5 processes.


   Content of the .dal input file
 ----------------------------------

**DALTON INPUT
.RUN RESPONSE
.DIRECT
**WAVE FUNCTIONS
.HF
**PROPERTIES
**RESPONSE
*QUADRA
.DIPLEN
.FREQUENCIES
5
0.0 0.0063445625 0.012689125 0.0190336875 0.02537825
**END OF DALTON INPUT


   Content of the .mol file
 ----------------------------

BASIS
aug-cc-pVDZ
blah
blah
Atomtype=3 Angstrom Charge=0 Nosymmmetry
Charge=17 Atoms=1
Cl_a -0.531200001141 -0.929799999232 0.000000000000
Charge=7 Atoms=1
N_a 0.000000000000 0.972399997674 0.000000000000
Charge=8 Atoms=1
O_a 1.128700001162 1.124999999397 0.000000000000


       *******************************************************************
       *********** Output from DALTON general input processing ***********
       *******************************************************************

 --------------------------------------------------------------------------------
   Overall default print level:    0
   Print level for DALTON.STAT:    1

    Parallel calculation using MPI
    AO-direct calculation (in sections where implemented)
    HERMIT 1- and 2-electron integral sections will be executed
    "Old" integral transformation used (limited to max 255 basis functions)
    Wave function sections will be executed (SIRIUS module)
    Dynamic molecular response properties section will be executed (RESPONSE module)
 --------------------------------------------------------------------------------


   ****************************************************************************
   *************** Output of molecule and basis set information ***************
   ****************************************************************************


    The two title cards from your ".mol" input:
    ------------------------------------------------------------------------
 1: blah                                                                    
 2: blah                                                                    
    ------------------------------------------------------------------------

  Coordinates are entered in Angstrom and converted to atomic units.
          - Conversion factor : 1 bohr = 0.52917721 A

  Atomic type no.    1
  --------------------
  Nuclear charge:  17.00000
  Number of symmetry independent centers:    1
  Number of basis sets to read;    2
  Basis set file used for this atomic type with Z =  17 :
     "/gpfs/projects/rjh/adrian/dalton/build/basis/aug-cc-pVDZ"

  Atomic type no.    2
  --------------------
  Nuclear charge:   7.00000
  Number of symmetry independent centers:    1
  Number of basis sets to read;    2
  Basis set file used for this atomic type with Z =   7 :
     "/gpfs/projects/rjh/adrian/dalton/build/basis/aug-cc-pVDZ"

  Atomic type no.    3
  --------------------
  Nuclear charge:   8.00000
  Number of symmetry independent centers:    1
  Number of basis sets to read;    2
  Basis set file used for this atomic type with Z =   8 :
     "/gpfs/projects/rjh/adrian/dalton/build/basis/aug-cc-pVDZ"


                         SYMGRP: Point group information
                         -------------------------------

@    Point group: C1 


                                 Isotopic Masses
                                 ---------------

                           Cl_a       34.968853
                           N_a        14.003074
                           O_a        15.994915

                       Total mass:    64.966842 amu
                       Natural abundance:  75.308 %

 Center-of-mass coordinates (a.u.):   -0.015184   -0.026271    0.000000
 Center-of-mass coordinates (Angs):   -0.008035   -0.013902    0.000000


  Atoms and basis sets
  --------------------

  Number of atom types :    3
  Total number of atoms:    3

  Basis set used is "aug-cc-pVDZ" from the basis set library.

  label    atoms   charge   prim   cont     basis
  ----------------------------------------------------------------------
  Cl          1   17.0000    50    27      [13s9p2d|5s4p2d]                                   
  N_          1    7.0000    35    23      [10s5p2d|4s3p2d]                                   
  O_          1    8.0000    35    23      [10s5p2d|4s3p2d]                                   
  ----------------------------------------------------------------------
  total:      3   32.0000   120    73
  ----------------------------------------------------------------------
  Spherical harmonic basis used.

  Threshold for neglecting AO integrals:  1.00D-12


  Cartesian Coordinates (a.u.)
  ----------------------------

  Total number of coordinates:    9
  Cl_a    :     1  x  -1.0038225198    2  y  -1.7570673496    3  z   0.0000000000
  N_a     :     4  x   0.0000000000    5  y   1.8375696795    6  z   0.0000000000
  O_a     :     7  x   2.1329338795    8  y   2.1259418895    9  z   0.0000000000


   Interatomic separations (in Angstrom):
   --------------------------------------

            Cl_a        N_a         O_a   
            ------      ------      ------
 Cl_a  :    0.000000
 N_a   :    1.974978    0.000000
 O_a   :    2.641490    1.138969    0.000000


  Max    interatomic separation is    2.6415 Angstrom (    4.9917 Bohr)
  between atoms    3 and    1, "O_a   " and "Cl_a  ".

  Min YX interatomic separation is    1.1390 Angstrom (    2.1523 Bohr)


  Bond distances (Angstrom):
  --------------------------

                  atom 1     atom 2       distance
                  ------     ------       --------
  bond distance:  N_a        Cl_a         1.974978
  bond distance:  O_a        N_a          1.138969


  Bond angles (degrees):
  ----------------------

                  atom 1     atom 2     atom 3         angle
                  ------     ------     ------         -----
  bond angle:     Cl_a       N_a        O_a          113.302




 Principal moments of inertia (u*A**2) and principal axes
 --------------------------------------------------------

   IA       5.840433          0.544616    0.838686    0.000000
   IB      88.102929          0.838686   -0.544616    0.000000
   IC      93.943362          0.000000    0.000000    1.000000


 Rotational constants
 --------------------

@    The molecule is planar.

               A                   B                   C

          86531.0810           5736.2339           5379.6138 MHz
            2.886366            0.191340            0.179445 cm-1


@  Nuclear repulsion energy :   85.148419784453 Hartree


                     .---------------------------------------.
                     | Starting in Integral Section (HERMIT) |
                     `---------------------------------------'



 ***************************************************************************************
 ****************** Output from **INTEGRALS input processing (HERMIT) ******************
 ***************************************************************************************


 - Using defaults, no **INTEGRALS input found

 Default print level:        1

 Calculation of one-electron Hamiltonian integrals.

 Center of mass  (bohr):     -0.015183530523     -0.026271029737      0.000000000000
 Operator center (bohr):      0.000000000000      0.000000000000      0.000000000000
 Gauge origin    (bohr):      0.000000000000      0.000000000000      0.000000000000
 Dipole origin   (bohr):      0.000000000000      0.000000000000      0.000000000000


     ************************************************************************
     ************************** Output from HERINT **************************
     ************************************************************************



                      Nuclear contribution to dipole moments
                      --------------------------------------

                 au               Debye          C m (/(10**-30)

      x     -0.00151180        -0.00384261        -0.01281757
      y      0.00037793         0.00096060         0.00320422
      z      0.00000000         0.00000000         0.00000000


  Total CPU  time used in HERMIT:   0.17 seconds
  Total wall time used in HERMIT:   0.18 seconds


                        .----------------------------------.
                        | End of Integral Section (HERMIT) |
                        `----------------------------------'



                   .--------------------------------------------.
                   | Starting in Wave Function Section (SIRIUS) |
                   `--------------------------------------------'


 *** Output from Huckel module :

     Using EWMO model:          T
     Using EHT  model:          F
     Number of Huckel orbitals each symmetry:   24

 EWMO - Energy Weighted Maximum Overlap - is a Huckel type method,
        which normally is better than Extended Huckel Theory.
 Reference: Linderberg and Ohrn, Propagators in Quantum Chemistry (Wiley, 1973)

 Huckel EWMO eigenvalues for symmetry :  1
         -104.883930     -20.685569     -15.673202     -10.608489      -8.072407
           -8.072214      -8.072213      -1.708026      -1.175229      -0.898477
           -0.756044      -0.739435      -0.598849      -0.506247      -0.484719
           -0.442076      -0.370251      -0.309233      -0.187242      -0.055540
           -0.055527      -0.054317      -0.054072      -0.050572

 **********************************************************************
 *SIRIUS* a direct, restricted step, second order MCSCF program       *
 **********************************************************************

 
     Date and time (Linux)  : Wed Sep 13 18:54:36 2023
     Host name              : sn-mem                                  

 Title lines from ".mol" input file:
     blah                                                                    
     blah                                                                    

 Print level on unit LUPRI =   2 is   0
 Print level on unit LUW4  =   2 is   5

@    Restricted, closed shell Hartree-Fock calculation.

@    Time-dependent Hartree-Fock calculation (random phase approximation).
 Fock matrices are calculated directly and in parallel without use of integrals on disk.

 Initial molecular orbitals are obtained according to
 ".MOSTART EWMO  " input option

     Wave function specification
     ============================
@    Wave function type        --- HF ---
@    Number of closed shell electrons          32
@    Number of electrons in active shells       0
@    Total charge of the molecule               0

@    Spin multiplicity and 2 M_S                1         0
@    Total number of symmetries                 1 (point group: C1 )
@    Reference state symmetry                   1 (irrep name : A  )

     Orbital specifications
     ======================
@    Abelian symmetry species          All |    1
@                                          |  A  
                                       --- |  ---
@    Occupied SCF orbitals              16 |   16
@    Secondary orbitals                 57 |   57
@    Total number of orbitals           73 |   73
@    Number of basis functions          73 |   73

     Optimization information
     ========================
@    Number of configurations                 1
@    Number of orbital rotations            912
     ------------------------------------------
@    Total number of variables              913

     Maximum number of Fock   iterations      0
     Maximum number of DIIS   iterations     60
     Maximum number of QC-SCF iterations     60
     Threshold for SCF convergence     1.00D-05


 ***********************************************
 ***** DIIS acceleration of SCF iterations *****
 ***********************************************

 C1-DIIS algorithm; max error vectors =    8

 Iter      Total energy        Error norm    Delta(E)  DIIS dim.
 -----------------------------------------------------------------------------
   1  Screening settings (-IFTHRS, JTDIIS, DIFDEN, times)   -7    1    T  1.53D-01  1.54D-01
@  1    -588.333904580        2.56319D+00   -5.88D+02    1
      Virial theorem: -V/T =      2.000886
@    MULPOP   Cl_a   -0.10; N_a     0.59; O_a    -0.49; 
   1  Level shift: doubly occupied orbital energies shifted by -2.00D-01
 -----------------------------------------------------------------------------
   2  Screening settings (-IFTHRS, JTDIIS, DIFDEN, times)   -7    2    T  1.15D-01  1.34D-01
@  2    -588.664582895        9.99664D-01   -3.31D-01    2
      Virial theorem: -V/T =      2.000352
@    MULPOP   Cl_a    0.15; N_a    -0.01; O_a    -0.14; 
   2  Level shift: doubly occupied orbital energies shifted by -1.00D-01
 -----------------------------------------------------------------------------
   3  Screening settings (-IFTHRS, JTDIIS, DIFDEN, times)   -7    3    T  1.16D-01  1.33D-01
@  3    -588.717862171        3.67258D-01   -5.33D-02    3
      Virial theorem: -V/T =      2.000259
@    MULPOP   Cl_a    0.00; N_a     0.38; O_a    -0.38; 
   3  Level shift: doubly occupied orbital energies shifted by -5.00D-02
 -----------------------------------------------------------------------------
   4  Screening settings (-IFTHRS, JTDIIS, DIFDEN, times)  -11    4    F  1.18D-01  1.34D-01
@  4    -588.726220820        9.49992D-02   -8.36D-03    4
      Virial theorem: -V/T =      2.000787
@    MULPOP   Cl_a   -0.01; N_a     0.30; O_a    -0.29; 
   4  Level shift: doubly occupied orbital energies shifted by -2.50D-02
 -----------------------------------------------------------------------------
   5  Screening settings (-IFTHRS, JTDIIS, DIFDEN, times)  -11    5    T  1.19D-01  1.39D-01
@  5    -588.727265303        3.39105D-02   -1.04D-03    5
      Virial theorem: -V/T =      2.000651
@    MULPOP   Cl_a   -0.01; N_a     0.31; O_a    -0.30; 
   5  Level shift: doubly occupied orbital energies shifted by -1.25D-02
 -----------------------------------------------------------------------------
   6  Screening settings (-IFTHRS, JTDIIS, DIFDEN, times)  -11    6    T  1.23D-01  1.42D-01
@  6    -588.727457331        1.52791D-02   -1.92D-04    6
      Virial theorem: -V/T =      2.000640
@    MULPOP   Cl_a   -0.02; N_a     0.31; O_a    -0.29; 
 -----------------------------------------------------------------------------
   7  Screening settings (-IFTHRS, JTDIIS, DIFDEN, times)  -11    7    T  1.26D-01  1.32D-01
@  7    -588.727511618        5.12193D-03   -5.43D-05    7
      Virial theorem: -V/T =      2.000655
@    MULPOP   Cl_a   -0.02; N_a     0.31; O_a    -0.29; 
 -----------------------------------------------------------------------------
   8  Screening settings (-IFTHRS, JTDIIS, DIFDEN, times)  -11    8    T  1.34D-01  1.34D-01
@  8    -588.727518818        2.16507D-03   -7.20D-06    8
      Virial theorem: -V/T =      2.000646
@    MULPOP   Cl_a   -0.02; N_a     0.31; O_a    -0.29; 
 -----------------------------------------------------------------------------
   9  Screening settings (-IFTHRS, JTDIIS, DIFDEN, times)  -11    9    T  1.34D-01  1.35D-01
@  9    -588.727520151        7.63817D-04   -1.33D-06    8
      Virial theorem: -V/T =      2.000646
@    MULPOP   Cl_a   -0.02; N_a     0.31; O_a    -0.29; 
 -----------------------------------------------------------------------------
  10  Screening settings (-IFTHRS, JTDIIS, DIFDEN, times)  -11   10    T  1.35D-01  1.35D-01
@ 10    -588.727520326        2.74714D-04   -1.74D-07    8
      Virial theorem: -V/T =      2.000646
@    MULPOP   Cl_a   -0.02; N_a     0.31; O_a    -0.29; 
 -----------------------------------------------------------------------------
  11  Screening settings (-IFTHRS, JTDIIS, DIFDEN, times)  -11   11    T  1.39D-01  1.39D-01
@ 11    -588.727520351        8.93194D-05   -2.49D-08    8
      Virial theorem: -V/T =      2.000646
@    MULPOP   Cl_a   -0.02; N_a     0.31; O_a    -0.29; 
 -----------------------------------------------------------------------------
  12  Screening settings (-IFTHRS, JTDIIS, DIFDEN, times)  -11   12    T  1.44D-01  1.45D-01
@ 12    -588.727520353        3.15799D-05   -2.30D-09    8
      Virial theorem: -V/T =      2.000646
@    MULPOP   Cl_a   -0.02; N_a     0.31; O_a    -0.29; 
 -----------------------------------------------------------------------------
  13  Screening settings (-IFTHRS, JTDIIS, DIFDEN, times)  -11   13    T  1.36D-01  1.36D-01
@ 13    -588.727520353        1.88217D-05   -1.18D-10    8
      Virial theorem: -V/T =      2.000646
@    MULPOP   Cl_a   -0.02; N_a     0.31; O_a    -0.29; 
 -----------------------------------------------------------------------------
  14  Screening settings (-IFTHRS, JTDIIS, DIFDEN, times)  -11   14    T  1.39D-01  1.39D-01
@ 14    -588.727520353        4.44673D-06   -3.19D-11    8

@ *** DIIS converged in  14 iterations !
@     Converged SCF energy, gradient:   -588.727520353083    4.45D-06
    - total time used in SIRFCK :              0.00 seconds


 *** SCF orbital energy analysis ***

 Only the 20 lowest virtual orbital energies printed in each symmetry.

 Number of electrons :   32
 Orbital occupations :   16

 Sym       Hartree-Fock orbital energies

1 A    -104.83385938   -20.77102794   -15.86987490   -10.55901143    -8.02598718
         -8.02299511    -8.02283171    -1.69287214    -1.10811395    -0.97321590
         -0.77482960    -0.76699277    -0.72934750    -0.45875254    -0.45843736
         -0.43289315     0.02902914     0.04615989     0.09044789     0.12440944
          0.13367148     0.13957777     0.16601482     0.17554732     0.18930817
          0.22247932     0.23510561     0.26193603     0.30148900     0.37132562
          0.47645135     0.48058485     0.50303622     0.53766045     0.63974849
          0.64671830

    E(LUMO) :     0.02902914 au (symmetry 1)
  - E(HOMO) :    -0.43289315 au (symmetry 1)
  ------------------------------------------
    gap     :     0.46192229 au

 --- Writing SIRIFC interface file

 CPU and wall time for SCF :       1.907       2.018


                       .-----------------------------------.
                       | --- Final results from SIRIUS --- |
                       `-----------------------------------'


@    Spin multiplicity:           1
@    Spatial symmetry:            1 ( irrep  A   in C1  )
@    Total charge of molecule:    0

@    Final HF energy:            -588.727520353083                 
@    Nuclear repulsion:            85.148419784453
@    Electronic energy:          -673.875940137536

@    Final gradient norm:           0.000004446728

 
     Date and time (Linux)  : Wed Sep 13 18:54:38 2023
     Host name              : sn-mem                                  

File label for MO orbitals:  13Sep23   FOCKDIIS

 (Only coefficients > 0.0100 are printed.)

 Molecular orbitals for symmetry species 1  (A  )
 ------------------------------------------------

    Orbital         7        8        9       10       11       12       13
   3 Cl_a:1s     0.0000  -0.0405  -0.8013   0.4781  -0.1445   0.2670   0.0000
   4 Cl_a:1s    -0.0000   0.0272   0.0374   0.0222  -0.0426   0.0573  -0.0000
   5 Cl_a:1s    -0.0003   0.0034   0.0194   0.0189  -0.0632   0.0506  -0.0000
   6 Cl_a:2px    0.9623   0.0005   0.0010  -0.0001  -0.0009   0.0008   0.0000
   7 Cl_a:2py   -0.2716   0.0011   0.0036   0.0008  -0.0015   0.0040  -0.0000
   9 Cl_a:2px   -0.0026  -0.0094  -0.0227  -0.0139   0.1010  -0.0299   0.0000
  10 Cl_a:2py    0.0007  -0.0192  -0.0874  -0.0818   0.1121  -0.2437  -0.0000
  11 Cl_a:2pz   -0.0000  -0.0000  -0.0000  -0.0000   0.0000   0.0000   0.0916
  12 Cl_a:2px    0.0013   0.0091   0.0113   0.0085  -0.0221   0.0105  -0.0000
  13 Cl_a:2py   -0.0004   0.0243   0.0423   0.0312  -0.0518   0.0711   0.0000
  14 Cl_a:2pz    0.0000   0.0000   0.0000   0.0000  -0.0000  -0.0000  -0.0125
  16 Cl_a:2py    0.0001  -0.0008   0.0114   0.0011  -0.0158   0.0102  -0.0000
  18 Cl_a:3d2-   0.0001  -0.0033  -0.0080  -0.0026   0.0127  -0.0069  -0.0000
  20 Cl_a:3d0    0.0000   0.0023   0.0086   0.0041  -0.0071   0.0120  -0.0000
  22 Cl_a:3d2+   0.0001   0.0027   0.0135   0.0075  -0.0047   0.0207  -0.0000
  28 N_a :1s    -0.0000   0.0019  -0.0006  -0.0116  -0.0047   0.0020  -0.0000
  29 N_a :1s    -0.0001  -0.5629  -0.3613  -0.6372  -0.1266  -0.3149  -0.0000
  30 N_a :1s     0.0006   0.2321  -0.0247   0.0059  -0.0298  -0.1364   0.0000
  31 N_a :1s     0.0012  -0.0022  -0.0449  -0.0406   0.0418  -0.0253  -0.0000
  32 N_a :2px    0.0001  -0.2995   0.1418   0.0191   0.2714   0.6344   0.0000
  33 N_a :2py   -0.0000  -0.0295   0.1412  -0.0827  -0.4538   0.1490  -0.0000
  34 N_a :2pz   -0.0000   0.0000   0.0000  -0.0000  -0.0000  -0.0000   0.5646
  35 N_a :2px    0.0002   0.1666  -0.0330  -0.0210  -0.0813  -0.1005  -0.0000
  36 N_a :2py   -0.0002   0.0430   0.0121   0.0227   0.0472  -0.0030  -0.0000
  37 N_a :2pz    0.0000  -0.0000  -0.0000  -0.0000   0.0000   0.0000  -0.0837
  38 N_a :2px    0.0002   0.0014   0.0006  -0.0056  -0.0138   0.0117   0.0000
  39 N_a :2py   -0.0003  -0.0022   0.0054  -0.0062  -0.0296   0.0071  -0.0000
  41 N_a :3d2-  -0.0000  -0.0053   0.0022  -0.0035  -0.0404   0.0103   0.0000
  43 N_a :3d0   -0.0000   0.0171   0.0017   0.0004  -0.0075  -0.0139  -0.0000
  44 N_a :3d1+   0.0000   0.0000  -0.0000   0.0000  -0.0000  -0.0000   0.0492
  45 N_a :3d2+   0.0000  -0.0305   0.0153  -0.0038   0.0125   0.0312   0.0000
  46 N_a :3d2-  -0.0001   0.0042  -0.0048  -0.0018   0.0146  -0.0176  -0.0000
  48 N_a :3d0   -0.0001  -0.0045   0.0125   0.0101  -0.0076   0.0057  -0.0000
  50 N_a :3d2+   0.0001   0.0224   0.0190  -0.0116  -0.0279   0.0274   0.0000
  52 O_a :1s     0.0001  -0.7277   0.3078   0.5211  -0.0469  -0.1327   0.0000
  53 O_a :1s    -0.0003   0.0249   0.0254   0.1274   0.0135  -0.0997  -0.0000
  54 O_a :1s    -0.0011   0.0033   0.0286   0.0687  -0.0034  -0.0667   0.0000
  55 O_a :2px   -0.0000   0.2519   0.0919   0.4483  -0.0476  -0.5811  -0.0000
  56 O_a :2py   -0.0000   0.0361   0.0743   0.0074  -0.7424   0.0942  -0.0000
  57 O_a :2pz   -0.0000   0.0000  -0.0000  -0.0000  -0.0000  -0.0000   0.6978
  58 O_a :2px    0.0003  -0.0285  -0.0266  -0.0908  -0.0021   0.0661   0.0000
  59 O_a :2py    0.0003  -0.0092  -0.0172  -0.0076   0.0205   0.0139   0.0000
  61 O_a :2px    0.0003  -0.0122  -0.0053  -0.0074   0.0047   0.0061  -0.0000
  63 O_a :2pz   -0.0000   0.0000  -0.0000  -0.0000  -0.0000  -0.0000   0.0138
  64 O_a :3d2-   0.0000  -0.0055  -0.0051  -0.0018   0.0257  -0.0005   0.0000
  66 O_a :3d0   -0.0000   0.0105   0.0022   0.0074  -0.0031  -0.0082   0.0000
  67 O_a :3d1+  -0.0000  -0.0000  -0.0000  -0.0000   0.0000   0.0000  -0.0306
  68 O_a :3d2+  -0.0000  -0.0175  -0.0021  -0.0149  -0.0023   0.0161  -0.0000
  69 O_a :3d2-  -0.0002  -0.0004  -0.0002   0.0004   0.0294  -0.0078  -0.0000
  72 O_a :3d1+   0.0000   0.0000  -0.0000   0.0000  -0.0000  -0.0000  -0.0426
  73 O_a :3d2+   0.0001  -0.0101  -0.0024  -0.0070  -0.0021   0.0067   0.0000

    Orbital        14       15       16       17       18       19       20
   2 Cl_a:1s     0.0000   0.0007   0.0028   0.0000  -0.0092  -0.0020  -0.0164
   3 Cl_a:1s     0.0000   0.0120  -0.0156   0.0000  -0.1923  -0.1039  -0.0191
   4 Cl_a:1s    -0.0000   0.0042  -0.0425  -0.0000  -0.0264  -0.1046   0.0643
   5 Cl_a:1s     0.0000   0.0042  -0.0286  -0.0000  -1.1758   0.2873   2.9341
   9 Cl_a:2px   -0.0000  -0.9543   0.0275   0.0000  -0.1142  -0.0774  -0.0126
  10 Cl_a:2py    0.0000   0.1363   0.7334   0.0000  -0.4412  -0.0739  -0.3322
  11 Cl_a:2pz    0.9511  -0.0000  -0.0000   0.1755   0.0000  -0.0000   0.0000
  12 Cl_a:2px    0.0000  -0.0001  -0.0221   0.0000  -0.0596   0.0374   0.1663
  13 Cl_a:2py   -0.0000   0.0045  -0.0336  -0.0000  -0.1961   0.1396   0.0876
  14 Cl_a:2pz    0.0112   0.0000   0.0000   0.0373  -0.0000   0.0000  -0.0000
  15 Cl_a:2px   -0.0000  -0.0372  -0.0014   0.0000  -0.2150  -0.2400   0.1584
  16 Cl_a:2py    0.0000   0.0078   0.0255   0.0000  -0.8196  -0.1100   1.8165
  17 Cl_a:2pz    0.0384  -0.0000  -0.0000   0.1692   0.0000   0.0000   0.0000
  18 Cl_a:3d2-   0.0000  -0.0079   0.0145  -0.0000   0.0296   0.0085   0.0136
  19 Cl_a:3d1-   0.0094   0.0000   0.0000  -0.0330   0.0000  -0.0000  -0.0000
  20 Cl_a:3d0    0.0000   0.0022  -0.0106  -0.0000  -0.0299   0.0016  -0.0136
  22 Cl_a:3d2+   0.0000   0.0010  -0.0186  -0.0000  -0.0507  -0.0065  -0.0088
  23 Cl_a:3d2-   0.0000  -0.0022  -0.0065  -0.0000  -0.0033   0.0501   0.0588
  24 Cl_a:3d1-   0.0114   0.0000   0.0000  -0.0250   0.0000  -0.0000  -0.0000
  25 Cl_a:3d0    0.0000   0.0016   0.0038  -0.0000   0.0003  -0.0436  -0.0604
  27 Cl_a:3d2+   0.0000  -0.0007   0.0010  -0.0000  -0.0021  -0.0391  -0.1120
  28 N_a :1s     0.0000   0.0038  -0.0126   0.0000   0.0074  -0.0163   0.0009
  29 N_a :1s     0.0000   0.0083  -0.2604   0.0000   0.2367  -0.0677   0.0455
  30 N_a :1s    -0.0000  -0.0458  -0.0672   0.0000   0.0484   0.9280  -0.0203
  31 N_a :1s    -0.0000  -0.0197  -0.0766  -0.0000   0.8890   5.4368  -4.9165
  32 N_a :2px    0.0000   0.0279   0.2276   0.0000  -0.0580   0.1040   0.0022
  33 N_a :2py    0.0000   0.0147  -0.3410   0.0000  -0.6321  -0.1795  -0.3624
  34 N_a :2pz   -0.0033  -0.0000   0.0000  -0.7049  -0.0000   0.0000   0.0000
  35 N_a :2px   -0.0000  -0.0365  -0.0618  -0.0000  -0.0725   0.7707  -0.0846
  36 N_a :2py    0.0000   0.0420  -0.1186  -0.0000  -0.1897   0.1292  -0.0628
  37 N_a :2pz    0.0257   0.0000  -0.0000  -0.1752   0.0000  -0.0000  -0.0000
  38 N_a :2px    0.0000  -0.0088   0.0067  -0.0000  -0.1120   1.9038  -0.2496
  39 N_a :2py    0.0000   0.0039  -0.0372  -0.0000  -0.9623   0.4873   2.1293
  40 N_a :2pz    0.0053  -0.0000   0.0000  -0.5896  -0.0000  -0.0000  -0.0000
  41 N_a :3d2-  -0.0000  -0.0008   0.0235   0.0000  -0.0020  -0.0027  -0.0097
  43 N_a :3d0    0.0000  -0.0000  -0.0148  -0.0000   0.0065  -0.0050  -0.0071
  44 N_a :3d1+  -0.0110  -0.0000  -0.0000   0.0137  -0.0000   0.0000   0.0000
  45 N_a :3d2+  -0.0000   0.0119  -0.0143   0.0000  -0.0041   0.0054  -0.0099
  46 N_a :3d2-   0.0000   0.0310  -0.0075  -0.0000  -0.0048   0.0294  -0.0553
  47 N_a :3d1-  -0.0180  -0.0000  -0.0000   0.0105  -0.0000   0.0000   0.0000
  48 N_a :3d0    0.0000   0.0061  -0.0143  -0.0000  -0.0066  -0.0558   0.0857
  50 N_a :3d2+  -0.0000   0.0065  -0.0525   0.0000  -0.0275   0.1990   0.0749
  51 O_a :1s    -0.0000  -0.0004   0.0013  -0.0000  -0.0019   0.0148  -0.0029
  52 O_a :1s    -0.0000   0.0298   0.0276  -0.0000   0.0013  -0.0923   0.0045
  53 O_a :1s     0.0000   0.0240   0.0600  -0.0000   0.0713  -0.6707   0.0590
  54 O_a :1s     0.0000   0.0158   0.0403   0.0000   0.2197  -5.3238   1.8584
  55 O_a :2px    0.0000  -0.0234  -0.1332   0.0000   0.0286  -0.0691   0.0265
  56 O_a :2py    0.0000  -0.1775   0.4910   0.0000   0.3249   0.0332   0.0740
  57 O_a :2pz   -0.1706   0.0000  -0.0000   0.5815   0.0000  -0.0000   0.0000
  58 O_a :2px   -0.0000  -0.0038  -0.0247   0.0000  -0.0486   0.5069  -0.0795
  59 O_a :2py   -0.0000  -0.0405   0.0663   0.0000   0.0776   0.0798   0.0302
  60 O_a :2pz   -0.0179  -0.0000   0.0000   0.1367  -0.0000  -0.0000  -0.0000
  61 O_a :2px    0.0000   0.0029  -0.0185   0.0000  -0.0684   1.5918  -0.6178
  62 O_a :2py   -0.0000  -0.0159   0.0559   0.0000   0.3727   0.2334  -0.3452
  63 O_a :2pz   -0.0160   0.0000  -0.0000   0.4759   0.0000   0.0000   0.0000
  64 O_a :3d2-  -0.0000   0.0030   0.0002   0.0000   0.0141   0.0067   0.0116
  67 O_a :3d1+   0.0038   0.0000  -0.0000   0.0121   0.0000  -0.0000  -0.0000
  69 O_a :3d2-   0.0000   0.0168  -0.0194  -0.0000   0.0082  -0.0274  -0.0014
  71 O_a :3d0   -0.0000  -0.0007   0.0062   0.0000  -0.0057   0.0635  -0.0208
  73 O_a :3d2+   0.0000  -0.0022   0.0055   0.0000   0.0102  -0.1073   0.0100

    Orbital        21       22       23       24       25       26
   1 Cl_a:1s    -0.0044   0.0000   0.0001  -0.0000   0.0119  -0.0159
   2 Cl_a:1s    -0.0264  -0.0000   0.0019   0.0000   0.0764  -0.1037
   3 Cl_a:1s     0.0667  -0.0000   0.0421   0.0000  -0.0020  -0.0465
   4 Cl_a:1s     0.2528   0.0000   0.0384  -0.0000  -0.6818   0.8505
   5 Cl_a:1s     0.0162   0.0000  -1.2025  -0.0000   0.5945  -0.5381
   9 Cl_a:2px   -0.1383   0.0000   0.1427  -0.0000  -0.0183   0.0603
  10 Cl_a:2py   -0.1034  -0.0000   0.0046   0.0000  -0.1875   0.0582
  11 Cl_a:2pz   -0.0000   0.1737  -0.0000  -0.1117   0.0000  -0.0000
  12 Cl_a:2px   -0.2457  -0.0000   0.2215   0.0000  -0.0057   0.2287
  13 Cl_a:2py   -0.0703   0.0000  -0.2346  -0.0000  -0.2717   0.2427
  14 Cl_a:2pz   -0.0000   0.3612   0.0000  -0.1832  -0.0000  -0.0000
  15 Cl_a:2px    0.7608  -0.0000  -1.6304   0.0000   0.5053  -0.0124
  16 Cl_a:2py    0.8564   0.0000   0.2490  -0.0000   0.8949  -0.5617
  17 Cl_a:2pz   -0.0000  -0.8633   0.0000   1.3936  -0.0000  -0.0000
  18 Cl_a:3d2-  -0.0044   0.0000   0.0219  -0.0000  -0.0304  -0.0028
  19 Cl_a:3d1-   0.0000   0.0026  -0.0000  -0.0296   0.0000   0.0000
  20 Cl_a:3d0    0.0091   0.0000   0.0129  -0.0000   0.0125  -0.0250
  22 Cl_a:3d2+  -0.0007   0.0000   0.0241  -0.0000   0.0174  -0.0175
  23 Cl_a:3d2-   0.0183   0.0000  -0.0386  -0.0000   0.0240   0.0217
  24 Cl_a:3d1-   0.0000   0.0236  -0.0000   0.0530   0.0000   0.0000
  25 Cl_a:3d0   -0.0427   0.0000   0.0137  -0.0000  -0.0180  -0.0586
  26 Cl_a:3d1+   0.0000   0.0083  -0.0000   0.0178   0.0000  -0.0000
  27 Cl_a:3d2+  -0.0466   0.0000   0.0098  -0.0000  -0.0175   0.0313
  29 N_a :1s     0.1165  -0.0000   0.0314   0.0000   0.0455   0.0973
  30 N_a :1s     0.2137  -0.0000   0.1193   0.0000  -0.0604   0.2495
  31 N_a :1s    -0.5131  -0.0000   3.0400   0.0000  -0.8391  -1.0860
  32 N_a :2px   -0.0448  -0.0000  -0.0193   0.0000   0.0343   0.0403
  33 N_a :2py    0.0005   0.0000   0.1502  -0.0000  -0.1531   0.0871
  34 N_a :2pz   -0.0000   0.1386   0.0000   0.2176  -0.0000  -0.0000
  35 N_a :2px   -0.1278  -0.0000   0.0033   0.0000  -0.0849  -0.2842
  36 N_a :2py    0.0166   0.0000   0.0494  -0.0000   0.0460   0.0766
  37 N_a :2pz    0.0000   0.1430  -0.0000   0.2361   0.0000   0.0000
  38 N_a :2px    0.6985   0.0000   1.9037  -0.0000  -1.2903  -1.5787
  39 N_a :2py   -0.4838   0.0000  -1.1430  -0.0000  -0.6498   0.6194
  40 N_a :2pz    0.0000  -0.3860  -0.0000  -1.5323   0.0000   0.0000
  43 N_a :3d0    0.0066   0.0000   0.0118  -0.0000   0.0023  -0.0170
  44 N_a :3d1+  -0.0000   0.0105   0.0000   0.0145  -0.0000  -0.0000
  45 N_a :3d2+  -0.0035  -0.0000  -0.0008   0.0000   0.0224  -0.0010
  46 N_a :3d2-  -0.0670   0.0000  -0.0202  -0.0000   0.0617   0.0000
  47 N_a :3d1-  -0.0000   0.0075   0.0000   0.0342  -0.0000  -0.0000
  48 N_a :3d0    0.0208   0.0000  -0.0417  -0.0000   0.0320   0.0843
  49 N_a :3d1+  -0.0000   0.0201   0.0000   0.0242  -0.0000  -0.0000
  50 N_a :3d2+  -0.0224  -0.0000  -0.0307   0.0000  -0.1204  -0.0869
  51 O_a :1s    -0.0109   0.0000  -0.0060  -0.0000  -0.0009  -0.0084
  52 O_a :1s    -0.0794   0.0000  -0.0626  -0.0000  -0.0058  -0.0329
  53 O_a :1s     0.1615   0.0000   0.0368  -0.0000   0.1423   0.2968
  54 O_a :1s    -0.7485  -0.0000  -2.4668   0.0000   0.7534   1.4584
  55 O_a :2px    0.0090  -0.0000   0.0137   0.0000  -0.0724  -0.0430
  56 O_a :2py   -0.0026   0.0000  -0.0516  -0.0000   0.1936  -0.0449
  57 O_a :2pz    0.0000   0.0569  -0.0000   0.0217   0.0000   0.0000
  58 O_a :2px   -0.0359  -0.0000   0.0402   0.0000  -0.0771  -0.2018
  59 O_a :2py    0.0056  -0.0000  -0.0010   0.0000   0.0341  -0.0946
  60 O_a :2pz   -0.0000   0.0094  -0.0000  -0.0109   0.0000   0.0000
  61 O_a :2px    0.1263  -0.0000   0.3741   0.0000   0.7020   1.3609
  62 O_a :2py    0.5785  -0.0000   0.2457   0.0000  -0.0466  -0.2688
  63 O_a :2pz    0.0000  -0.1311   0.0000   0.0056  -0.0000  -0.0000
  66 O_a :3d0   -0.0025  -0.0000   0.0007   0.0000  -0.0047  -0.0116
  67 O_a :3d1+   0.0000  -0.0094  -0.0000  -0.0120   0.0000   0.0000
  68 O_a :3d2+   0.0031   0.0000   0.0031  -0.0000   0.0059   0.0205
  69 O_a :3d2-  -0.0238   0.0000  -0.0027  -0.0000   0.0369   0.0152
  71 O_a :3d0    0.0084  -0.0000   0.0092   0.0000   0.0336  -0.0084
  72 O_a :3d1+  -0.0000   0.0189   0.0000   0.0274  -0.0000  -0.0000
  73 O_a :3d2+   0.0049  -0.0000  -0.0011   0.0000  -0.0218  -0.0509

  Total CPU  time used in SIRIUS :   1.94 seconds
  Total wall time used in SIRIUS :   2.05 seconds

 
     Date and time (Linux)  : Wed Sep 13 18:54:38 2023
     Host name              : sn-mem                                  


                     .---------------------------------------.
                     | End of Wave Function Section (SIRIUS) |
                     `---------------------------------------'



                 .------------------------------------------------.
                 | Starting in Dynamic Property Section (RESPONS) |
                 `------------------------------------------------'


 ----------------------------------------------------------------------------------------
  RESPONSE  -  an MCSCF, MC-srDFT, DFT, SOPPA and SOPPA-srDFT response property program
 ----------------------------------------------------------------------------------------


 -------- OUTPUT FROM RESPONSE INPUT PROCESSING --------




 Quadratic Response calculation
 ------------------------------

 First hyperpolarizability calculation : HYPCAL= T

 Spin of operator A , ISPINA=    0
 Spin of operator B , ISPINB=    0
 Spin of operator C , ISPINC=    0

  5 B-frequencies  0.000000D+00  6.344563D-03  1.268913D-02  1.903369D-02  2.537825D-02
  5 C-frequencies  0.000000D+00  6.344563D-03  1.268913D-02  1.903369D-02  2.537825D-02


 Print level                                    : IPRHYP =   2
 Maximum number of iterations in lin.rsp. solver: MAXITL =  60
 Threshold for convergence of linear resp. eq.s : THCLR  = 1.000D-03
 Maximum iterations in optimal orbital algorithm: MAXITO =   5
 Direct one-index transformation                : DIROIT = T

    3 A OPERATORS OF SYMMETRY NO:    1 AND LABELS:

          XDIPLEN 
          YDIPLEN 
          ZDIPLEN 

    3 B OPERATORS OF SYMMETRY NO:    1 AND LABELS:

          XDIPLEN 
          YDIPLEN 
          ZDIPLEN 

    3 C OPERATORS OF SYMMETRY NO:    1 AND LABELS:

          XDIPLEN 
          YDIPLEN 
          ZDIPLEN 


   SCF energy         :     -588.727520353082696
 -- inactive part     :     -673.875940137535736
 -- nuclear repulsion :       85.148419784453068


                     ***************************************
                     *** RHF response calculation (TDHF) ***
                     ***************************************



 Linear response calculations for quadratic response
 - singlet property operator of symmetry    1  ( A  )


 Perturbation symmetry.     KSYMOP:           1
 Perturbation spin symmetry.TRPLET:           F
 Orbital variables.         KZWOPT:         912
 Configuration variables.   KZCONF:           0
 Total number of variables. KZVAR :         912


 QRLRVE -- linear response calculation for symmetry  1  ( A  )
 QRLRVE -- operator label : XDIPLEN 
 QRLRVE -- operator spin  :   0
 QRLRVE -- frequencies :  0.000000  0.006345  0.012689  0.019034  0.025378
                          0.031723  0.038067  0.044412  0.050757



 ---  SOLVING SETS OF LINEAR EQUATIONS FOR LINEAR RESPONSE PROPERTIES ---

 Operator symmetry = 1  ( A  ); triplet =   F

RSPORT:    2 out of    9 new trial vectors linear dependent

 ** RSPCTL MICROITERATION NUMBER    1

       No.  Residual tot.,    conf., and orb.    Bnorm      Frequency 
      ----------------------------------------------------------------
         1    3.93768D+00  0.00D+00  3.94D+00  3.91D+00    0.00000D+00
         2    3.93838D+00  0.00D+00  3.94D+00  3.91D+00    6.34456D-03
         3    3.94046D+00  0.00D+00  3.94D+00  3.92D+00    1.26891D-02
         4    3.94394D+00  0.00D+00  3.94D+00  3.93D+00    1.90337D-02
         5    3.94883D+00  0.00D+00  3.95D+00  3.94D+00    2.53783D-02
         6    3.95515D+00  0.00D+00  3.96D+00  3.95D+00    3.17228D-02
         7    3.96293D+00  0.00D+00  3.96D+00  3.97D+00    3.80674D-02
         8    3.97221D+00  0.00D+00  3.97D+00  3.99D+00    4.44119D-02
         9    3.98301D+00  0.00D+00  3.98D+00  4.02D+00    5.07565D-02

 ** RSPCTL MICROITERATION NUMBER    2

       No.  Residual tot.,    conf., and orb.    Bnorm      Frequency 
      ----------------------------------------------------------------
         1    8.89467D-01  0.00D+00  8.89D-01  4.91D+00    0.00000D+00
         2    8.89794D-01  0.00D+00  8.90D-01  4.91D+00    6.34456D-03
         3    8.90776D-01  0.00D+00  8.91D-01  4.92D+00    1.26891D-02
         4    8.92425D-01  0.00D+00  8.92D-01  4.93D+00    1.90337D-02
         5    8.94755D-01  0.00D+00  8.95D-01  4.95D+00    2.53783D-02
         6    8.97790D-01  0.00D+00  8.98D-01  4.98D+00    3.17228D-02
         7    9.01561D-01  0.00D+00  9.02D-01  5.01D+00    3.80674D-02
         8    9.06108D-01  0.00D+00  9.06D-01  5.05D+00    4.44119D-02
         9    9.11480D-01  0.00D+00  9.11D-01  5.09D+00    5.07565D-02

 ** RSPCTL MICROITERATION NUMBER    3

       No.  Residual tot.,    conf., and orb.    Bnorm      Frequency 
      ----------------------------------------------------------------
         1    1.47277D-01  0.00D+00  1.47D-01  5.01D+00    0.00000D+00
         2    1.47375D-01  0.00D+00  1.47D-01  5.01D+00    6.34456D-03
         3    1.47670D-01  0.00D+00  1.48D-01  5.02D+00    1.26891D-02
         4    1.48166D-01  0.00D+00  1.48D-01  5.03D+00    1.90337D-02
         5    1.48867D-01  0.00D+00  1.49D-01  5.06D+00    2.53783D-02
         6    1.49784D-01  0.00D+00  1.50D-01  5.08D+00    3.17228D-02
         7    1.50926D-01  0.00D+00  1.51D-01  5.12D+00    3.80674D-02
         8    1.52308D-01  0.00D+00  1.52D-01  5.16D+00    4.44119D-02
         9    1.53948D-01  0.00D+00  1.54D-01  5.21D+00    5.07565D-02

 ** RSPCTL MICROITERATION NUMBER    4

       No.  Residual tot.,    conf., and orb.    Bnorm      Frequency 
      ----------------------------------------------------------------
         1    2.68140D-02  0.00D+00  2.68D-02  5.01D+00    0.00000D+00
         2    2.68409D-02  0.00D+00  2.68D-02  5.01D+00    6.34456D-03
         3    2.69223D-02  0.00D+00  2.69D-02  5.02D+00    1.26891D-02
         4    2.70594D-02  0.00D+00  2.71D-02  5.04D+00    1.90337D-02
         5    2.72548D-02  0.00D+00  2.73D-02  5.06D+00    2.53783D-02
         6    2.75118D-02  0.00D+00  2.75D-02  5.09D+00    3.17228D-02
         7    2.78352D-02  0.00D+00  2.78D-02  5.12D+00    3.80674D-02
         8    2.82310D-02  0.00D+00  2.82D-02  5.16D+00    4.44119D-02
         9    2.87069D-02  0.00D+00  2.87D-02  5.21D+00    5.07565D-02

 ** RSPCTL MICROITERATION NUMBER    5

       No.  Residual tot.,    conf., and orb.    Bnorm      Frequency 
      ----------------------------------------------------------------
         1    4.14589D-03  0.00D+00  4.15D-03  5.01D+00    0.00000D+00
         2    4.14967D-03  0.00D+00  4.15D-03  5.01D+00    6.34456D-03
         3    4.16114D-03  0.00D+00  4.16D-03  5.02D+00    1.26891D-02
         4    4.18063D-03  0.00D+00  4.18D-03  5.04D+00    1.90337D-02
         5    4.20873D-03  0.00D+00  4.21D-03  5.06D+00    2.53783D-02
         6    4.24630D-03  0.00D+00  4.25D-03  5.09D+00    3.17228D-02
         7    4.29451D-03  0.00D+00  4.29D-03  5.12D+00    3.80674D-02
         8    4.35492D-03  0.00D+00  4.35D-03  5.16D+00    4.44119D-02
         9    4.42951D-03  0.00D+00  4.43D-03  5.21D+00    5.07565D-02

 *** THE REQUESTED    9 SOLUTION VECTORS CONVERGED

 Convergence of RSP solution vectors, threshold = 1.00D-03
 ---------------------------------------------------------------
 (dimension of paired reduced space:   86)
 RSP solution vector no.    1; norm of residual   8.28D-04
 RSP solution vector no.    2; norm of residual   8.28D-04
 RSP solution vector no.    3; norm of residual   8.29D-04
 RSP solution vector no.    4; norm of residual   8.30D-04
 RSP solution vector no.    5; norm of residual   8.32D-04
 RSP solution vector no.    6; norm of residual   8.35D-04
 RSP solution vector no.    7; norm of residual   8.39D-04
 RSP solution vector no.    8; norm of residual   8.44D-04
 RSP solution vector no.    9; norm of residual   8.50D-04

 *** RSPCTL MICROITERATIONS CONVERGED

@ QRLRVE: SINGLET SOLUTION FOR SYMMETRY    1  ( A  )    LABEL   XDIPLEN     FREQUENCY   0.000000D+00

@ QRLRVE:  << XDIPLEN  ; XDIPLEN  >> (   0.00000):     30.3207157722    

@ QRLRVE:  << YDIPLEN  ; XDIPLEN  >> (   0.00000):     13.0679960811    

@ QRLRVE:  << ZDIPLEN  ; XDIPLEN  >> (   0.00000):   -2.013327030978E-15

@ QRLRVE: SINGLET SOLUTION FOR SYMMETRY    1  ( A  )    LABEL   XDIPLEN     FREQUENCY   0.634456D-02

@ QRLRVE:  << XDIPLEN  ; XDIPLEN  >> (   0.00634):     30.3271644262    

@ QRLRVE:  << YDIPLEN  ; XDIPLEN  >> (   0.00634):     13.0761285962    

@ QRLRVE:  << ZDIPLEN  ; XDIPLEN  >> (   0.00634):   -2.027259829299E-15

@ QRLRVE: SINGLET SOLUTION FOR SYMMETRY    1  ( A  )    LABEL   XDIPLEN     FREQUENCY   0.126891D-01

@ QRLRVE:  << XDIPLEN  ; XDIPLEN  >> (   0.01269):     30.3465470809    

@ QRLRVE:  << YDIPLEN  ; XDIPLEN  >> (   0.01269):     13.1005962508    

@ QRLRVE:  << ZDIPLEN  ; XDIPLEN  >> (   0.01269):   -2.069439464685E-15

@ QRLRVE: SINGLET SOLUTION FOR SYMMETRY    1  ( A  )    LABEL   XDIPLEN     FREQUENCY   0.190337D-01

@ QRLRVE:  << XDIPLEN  ; XDIPLEN  >> (   0.01903):     30.3789745812    

@ QRLRVE:  << YDIPLEN  ; XDIPLEN  >> (   0.01903):     13.1416110661    

@ QRLRVE:  << ZDIPLEN  ; XDIPLEN  >> (   0.01903):   -2.141026264765E-15

@ QRLRVE: SINGLET SOLUTION FOR SYMMETRY    1  ( A  )    LABEL   XDIPLEN     FREQUENCY   0.253783D-01

@ QRLRVE:  << XDIPLEN  ; XDIPLEN  >> (   0.02538):     30.4246342570    

@ QRLRVE:  << YDIPLEN  ; XDIPLEN  >> (   0.02538):     13.1995321417    

@ QRLRVE:  << ZDIPLEN  ; XDIPLEN  >> (   0.02538):   -2.244010564774E-15

@ QRLRVE: SINGLET SOLUTION FOR SYMMETRY    1  ( A  )    LABEL   XDIPLEN     FREQUENCY   0.317228D-01

@ QRLRVE:  << XDIPLEN  ; XDIPLEN  >> (   0.03172):     30.4837939328    

@ QRLRVE:  << YDIPLEN  ; XDIPLEN  >> (   0.03172):     13.2748745445    

@ QRLRVE:  << ZDIPLEN  ; XDIPLEN  >> (   0.03172):   -2.381301352156E-15

@ QRLRVE: SINGLET SOLUTION FOR SYMMETRY    1  ( A  )    LABEL   XDIPLEN     FREQUENCY   0.380674D-01

@ QRLRVE:  << XDIPLEN  ; XDIPLEN  >> (   0.03807):     30.5568078053    

@ QRLRVE:  << YDIPLEN  ; XDIPLEN  >> (   0.03807):     13.3683223697    

@ QRLRVE:  << ZDIPLEN  ; XDIPLEN  >> (   0.03807):   -2.556858686797E-15

@ QRLRVE: SINGLET SOLUTION FOR SYMMETRY    1  ( A  )    LABEL   XDIPLEN     FREQUENCY   0.444119D-01

@ QRLRVE:  << XDIPLEN  ; XDIPLEN  >> (   0.04441):     30.6441244780    

@ QRLRVE:  << YDIPLEN  ; XDIPLEN  >> (   0.04441):     13.4807466462    

@ QRLRVE:  << ZDIPLEN  ; XDIPLEN  >> (   0.04441):   -2.775879194185E-15

@ QRLRVE: SINGLET SOLUTION FOR SYMMETRY    1  ( A  )    LABEL   XDIPLEN     FREQUENCY   0.507565D-01

@ QRLRVE:  << XDIPLEN  ; XDIPLEN  >> (   0.05076):     30.7462975686    

@ QRLRVE:  << YDIPLEN  ; XDIPLEN  >> (   0.05076):     13.6132290561    

@ QRLRVE:  << ZDIPLEN  ; XDIPLEN  >> (   0.05076):   -3.045048135900E-15


 QRLRVE -- linear response calculation for symmetry  1  ( A  )
 QRLRVE -- operator label : YDIPLEN 
 QRLRVE -- operator spin  :   0
 QRLRVE -- frequencies :  0.000000  0.006345  0.012689  0.019034  0.025378
                          0.031723  0.038067  0.044412  0.050757



 ---  SOLVING SETS OF LINEAR EQUATIONS FOR LINEAR RESPONSE PROPERTIES ---

 Operator symmetry = 1  ( A  ); triplet =   F

RSPORT:    2 out of    9 new trial vectors linear dependent

 ** RSPCTL MICROITERATION NUMBER    1

       No.  Residual tot.,    conf., and orb.    Bnorm      Frequency 
      ----------------------------------------------------------------
         1    4.47842D+00  0.00D+00  4.48D+00  5.59D+00    0.00000D+00
         2    4.48007D+00  0.00D+00  4.48D+00  5.60D+00    6.34456D-03
         3    4.48506D+00  0.00D+00  4.49D+00  5.61D+00    1.26891D-02
         4    4.49339D+00  0.00D+00  4.49D+00  5.63D+00    1.90337D-02
         5    4.50512D+00  0.00D+00  4.51D+00  5.66D+00    2.53783D-02
         6    4.52031D+00  0.00D+00  4.52D+00  5.69D+00    3.17228D-02
         7    4.53905D+00  0.00D+00  4.54D+00  5.74D+00    3.80674D-02
         8    4.56143D+00  0.00D+00  4.56D+00  5.79D+00    4.44119D-02
         9    4.58758D+00  0.00D+00  4.59D+00  5.86D+00    5.07565D-02

 ** RSPCTL MICROITERATION NUMBER    2

       No.  Residual tot.,    conf., and orb.    Bnorm      Frequency 
      ----------------------------------------------------------------
         1    1.15201D+00  0.00D+00  1.15D+00  7.42D+00    0.00000D+00
         2    1.15311D+00  0.00D+00  1.15D+00  7.43D+00    6.34456D-03
         3    1.15642D+00  0.00D+00  1.16D+00  7.45D+00    1.26891D-02
         4    1.16198D+00  0.00D+00  1.16D+00  7.49D+00    1.90337D-02
         5    1.16985D+00  0.00D+00  1.17D+00  7.55D+00    2.53783D-02
         6    1.18013D+00  0.00D+00  1.18D+00  7.61D+00    3.17228D-02
         7    1.19293D+00  0.00D+00  1.19D+00  7.70D+00    3.80674D-02
         8    1.20841D+00  0.00D+00  1.21D+00  7.80D+00    4.44119D-02
         9    1.22677D+00  0.00D+00  1.23D+00  7.92D+00    5.07565D-02

 ** RSPCTL MICROITERATION NUMBER    3

       No.  Residual tot.,    conf., and orb.    Bnorm      Frequency 
      ----------------------------------------------------------------
         1    2.06913D-01  0.00D+00  2.07D-01  7.58D+00    0.00000D+00
         2    2.07181D-01  0.00D+00  2.07D-01  7.59D+00    6.34456D-03
         3    2.07988D-01  0.00D+00  2.08D-01  7.61D+00    1.26891D-02
         4    2.09347D-01  0.00D+00  2.09D-01  7.65D+00    1.90337D-02
         5    2.11276D-01  0.00D+00  2.11D-01  7.71D+00    2.53783D-02
         6    2.13805D-01  0.00D+00  2.14D-01  7.79D+00    3.17228D-02
         7    2.16972D-01  0.00D+00  2.17D-01  7.88D+00    3.80674D-02
         8    2.20825D-01  0.00D+00  2.21D-01  7.99D+00    4.44119D-02
         9    2.25426D-01  0.00D+00  2.25D-01  8.12D+00    5.07565D-02

 ** RSPCTL MICROITERATION NUMBER    4

       No.  Residual tot.,    conf., and orb.    Bnorm      Frequency 
      ----------------------------------------------------------------
         1    3.79373D-02  0.00D+00  3.79D-02  7.59D+00    0.00000D+00
         2    3.79860D-02  0.00D+00  3.80D-02  7.60D+00    6.34456D-03
         3    3.81327D-02  0.00D+00  3.81D-02  7.62D+00    1.26891D-02
         4    3.83800D-02  0.00D+00  3.84D-02  7.66D+00    1.90337D-02
         5    3.87320D-02  0.00D+00  3.87D-02  7.72D+00    2.53783D-02
         6    3.91948D-02  0.00D+00  3.92D-02  7.79D+00    3.17228D-02
         7    3.97765D-02  0.00D+00  3.98D-02  7.88D+00    3.80674D-02
         8    4.04877D-02  0.00D+00  4.05D-02  7.99D+00    4.44119D-02
         9    4.13419D-02  0.00D+00  4.13D-02  8.13D+00    5.07565D-02

 ** RSPCTL MICROITERATION NUMBER    5

       No.  Residual tot.,    conf., and orb.    Bnorm      Frequency 
      ----------------------------------------------------------------
         1    7.65051D-03  0.00D+00  7.65D-03  7.59D+00    0.00000D+00
         2    7.66332D-03  0.00D+00  7.66D-03  7.60D+00    6.34456D-03
         3    7.70198D-03  0.00D+00  7.70D-03  7.62D+00    1.26891D-02
         4    7.76707D-03  0.00D+00  7.77D-03  7.66D+00    1.90337D-02
         5    7.85962D-03  0.00D+00  7.86D-03  7.72D+00    2.53783D-02
         6    7.98111D-03  0.00D+00  7.98D-03  7.79D+00    3.17228D-02
         7    8.13355D-03  0.00D+00  8.13D-03  7.88D+00    3.80674D-02
         8    8.31948D-03  0.00D+00  8.32D-03  7.99D+00    4.44119D-02
         9    8.54215D-03  0.00D+00  8.54D-03  8.13D+00    5.07565D-02

 ** RSPCTL MICROITERATION NUMBER    6

       No.  Residual tot.,    conf., and orb.    Bnorm      Frequency 
      ----------------------------------------------------------------
         1    1.11836D-03  0.00D+00  1.12D-03  7.59D+00    0.00000D+00
         2    1.12019D-03  0.00D+00  1.12D-03  7.60D+00    6.34456D-03
         3    1.12569D-03  0.00D+00  1.13D-03  7.62D+00    1.26891D-02
         4    1.13495D-03  0.00D+00  1.13D-03  7.66D+00    1.90337D-02
         5    1.14812D-03  0.00D+00  1.15D-03  7.72D+00    2.53783D-02
         6    1.16539D-03  0.00D+00  1.17D-03  7.79D+00    3.17228D-02
         7    1.18704D-03  0.00D+00  1.19D-03  7.88D+00    3.80674D-02
         8    1.21343D-03  0.00D+00  1.21D-03  7.99D+00    4.44119D-02
         9    1.24499D-03  0.00D+00  1.24D-03  8.13D+00    5.07565D-02

 *** THE REQUESTED    9 SOLUTION VECTORS CONVERGED

 Convergence of RSP solution vectors, threshold = 1.00D-03
 ---------------------------------------------------------------
 (dimension of paired reduced space:  104)
 RSP solution vector no.    1; norm of residual   1.47D-04
 RSP solution vector no.    2; norm of residual   1.47D-04
 RSP solution vector no.    3; norm of residual   1.48D-04
 RSP solution vector no.    4; norm of residual   1.48D-04
 RSP solution vector no.    5; norm of residual   1.49D-04
 RSP solution vector no.    6; norm of residual   1.50D-04
 RSP solution vector no.    7; norm of residual   1.51D-04
 RSP solution vector no.    8; norm of residual   1.52D-04
 RSP solution vector no.    9; norm of residual   1.53D-04

 *** RSPCTL MICROITERATIONS CONVERGED

@ QRLRVE: SINGLET SOLUTION FOR SYMMETRY    1  ( A  )    LABEL   YDIPLEN     FREQUENCY   0.000000D+00

@ QRLRVE:  << XDIPLEN  ; YDIPLEN  >> (   0.00000):     13.0689875681    

@ QRLRVE:  << YDIPLEN  ; YDIPLEN  >> (   0.00000):     46.7904724967    

@ QRLRVE:  << ZDIPLEN  ; YDIPLEN  >> (   0.00000):   -3.633063647657E-17

@ QRLRVE: SINGLET SOLUTION FOR SYMMETRY    1  ( A  )    LABEL   YDIPLEN     FREQUENCY   0.634456D-02

@ QRLRVE:  << XDIPLEN  ; YDIPLEN  >> (   0.00634):     13.0771223002    

@ QRLRVE:  << YDIPLEN  ; YDIPLEN  >> (   0.00634):     46.8108738431    

@ QRLRVE:  << ZDIPLEN  ; YDIPLEN  >> (   0.00634):   -3.148708238172E-17

@ QRLRVE: SINGLET SOLUTION FOR SYMMETRY    1  ( A  )    LABEL   YDIPLEN     FREQUENCY   0.126891D-01

@ QRLRVE:  << XDIPLEN  ; YDIPLEN  >> (   0.01269):     13.1015966434    

@ QRLRVE:  << YDIPLEN  ; YDIPLEN  >> (   0.01269):     46.8722479211    

@ QRLRVE:  << ZDIPLEN  ; YDIPLEN  >> (   0.01269):   -1.684599823115E-17

@ QRLRVE: SINGLET SOLUTION FOR SYMMETRY    1  ( A  )    LABEL   YDIPLEN     FREQUENCY   0.190337D-01

@ QRLRVE:  << XDIPLEN  ; YDIPLEN  >> (   0.01903):     13.1426227345    

@ QRLRVE:  << YDIPLEN  ; YDIPLEN  >> (   0.01903):     46.9751089718    

@ QRLRVE:  << ZDIPLEN  ; YDIPLEN  >> (   0.01903):    7.928890531522E-18

@ QRLRVE: SINGLET SOLUTION FOR SYMMETRY    1  ( A  )    LABEL   YDIPLEN     FREQUENCY   0.253783D-01

@ QRLRVE:  << XDIPLEN  ; YDIPLEN  >> (   0.02538):     13.2005598691    

@ QRLRVE:  << YDIPLEN  ; YDIPLEN  >> (   0.02538):     47.1203280170    

@ QRLRVE:  << ZDIPLEN  ; YDIPLEN  >> (   0.02538):    4.341509272040E-17

@ QRLRVE: SINGLET SOLUTION FOR SYMMETRY    1  ( A  )    LABEL   YDIPLEN     FREQUENCY   0.317228D-01

@ QRLRVE:  << XDIPLEN  ; YDIPLEN  >> (   0.03172):     13.2759233991    

@ QRLRVE:  << YDIPLEN  ; YDIPLEN  >> (   0.03172):     47.3091545085    

@ QRLRVE:  << ZDIPLEN  ; YDIPLEN  >> (   0.03172):    9.045820613879E-17

@ QRLRVE: SINGLET SOLUTION FOR SYMMETRY    1  ( A  )    LABEL   YDIPLEN     FREQUENCY   0.380674D-01

@ QRLRVE:  << XDIPLEN  ; YDIPLEN  >> (   0.03807):     13.3693978030    

@ QRLRVE:  << YDIPLEN  ; YDIPLEN  >> (   0.03807):     47.5432481400    

@ QRLRVE:  << ZDIPLEN  ; YDIPLEN  >> (   0.03807):    1.502122057112E-16

@ QRLRVE: SINGLET SOLUTION FOR SYMMETRY    1  ( A  )    LABEL   YDIPLEN     FREQUENCY   0.444119D-01

@ QRLRVE:  << XDIPLEN  ; YDIPLEN  >> (   0.04441):     13.4818546066    

@ QRLRVE:  << YDIPLEN  ; YDIPLEN  >> (   0.04441):     47.8247224742    

@ QRLRVE:  << ZDIPLEN  ; YDIPLEN  >> (   0.04441):    2.241961930682E-16

@ QRLRVE: SINGLET SOLUTION FOR SYMMETRY    1  ( A  )    LABEL   YDIPLEN     FREQUENCY   0.507565D-01

@ QRLRVE:  << XDIPLEN  ; YDIPLEN  >> (   0.05076):     13.6143761214    

@ QRLRVE:  << YDIPLEN  ; YDIPLEN  >> (   0.05076):     48.1562027485    

@ QRLRVE:  << ZDIPLEN  ; YDIPLEN  >> (   0.05076):    3.143720365253E-16


 QRLRVE -- linear response calculation for symmetry  1  ( A  )
 QRLRVE -- operator label : ZDIPLEN 
 QRLRVE -- operator spin  :   0
 QRLRVE -- frequencies :  0.000000  0.006345  0.012689  0.019034  0.025378
                          0.031723  0.038067  0.044412  0.050757



 ---  SOLVING SETS OF LINEAR EQUATIONS FOR LINEAR RESPONSE PROPERTIES ---

 Operator symmetry = 1  ( A  ); triplet =   F

RSPORT:    2 out of    9 new trial vectors linear dependent

 ** RSPCTL MICROITERATION NUMBER    1

       No.  Residual tot.,    conf., and orb.    Bnorm      Frequency 
      ----------------------------------------------------------------
         1    1.51415D+00  0.00D+00  1.51D+00  3.37D+00    0.00000D+00
         2    1.51431D+00  0.00D+00  1.51D+00  3.37D+00    6.34456D-03
         3    1.51479D+00  0.00D+00  1.51D+00  3.38D+00    1.26891D-02
         4    1.51559D+00  0.00D+00  1.52D+00  3.38D+00    1.90337D-02
         5    1.51671D+00  0.00D+00  1.52D+00  3.39D+00    2.53783D-02
         6    1.51816D+00  0.00D+00  1.52D+00  3.39D+00    3.17228D-02
         7    1.51994D+00  0.00D+00  1.52D+00  3.40D+00    3.80674D-02
         8    1.52207D+00  0.00D+00  1.52D+00  3.41D+00    4.44119D-02
         9    1.52455D+00  0.00D+00  1.52D+00  3.43D+00    5.07565D-02

 ** RSPCTL MICROITERATION NUMBER    2

       No.  Residual tot.,    conf., and orb.    Bnorm      Frequency 
      ----------------------------------------------------------------
         1    2.18211D-01  0.00D+00  2.18D-01  3.57D+00    0.00000D+00
         2    2.18443D-01  0.00D+00  2.18D-01  3.57D+00    6.34456D-03
         3    2.19150D-01  0.00D+00  2.19D-01  3.57D+00    1.26891D-02
         4    2.20367D-01  0.00D+00  2.20D-01  3.58D+00    1.90337D-02
         5    2.22154D-01  0.00D+00  2.22D-01  3.59D+00    2.53783D-02
         6    2.24609D-01  0.00D+00  2.25D-01  3.60D+00    3.17228D-02
         7    2.27878D-01  0.00D+00  2.28D-01  3.61D+00    3.80674D-02
         8    2.32176D-01  0.00D+00  2.32D-01  3.63D+00    4.44119D-02
         9    2.37831D-01  0.00D+00  2.38D-01  3.65D+00    5.07565D-02

 ** RSPCTL MICROITERATION NUMBER    3

       No.  Residual tot.,    conf., and orb.    Bnorm      Frequency 
      ----------------------------------------------------------------
         1    3.05988D-02  0.00D+00  3.06D-02  3.57D+00    0.00000D+00
         2    3.06518D-02  0.00D+00  3.07D-02  3.57D+00    6.34456D-03
         3    3.08161D-02  0.00D+00  3.08D-02  3.58D+00    1.26891D-02
         4    3.11073D-02  0.00D+00  3.11D-02  3.58D+00    1.90337D-02
         5    3.15549D-02  0.00D+00  3.16D-02  3.59D+00    2.53783D-02
         6    3.22074D-02  0.00D+00  3.22D-02  3.61D+00    3.17228D-02
         7    3.31417D-02  0.00D+00  3.31D-02  3.62D+00    3.80674D-02
         8    3.44798D-02  0.00D+00  3.45D-02  3.65D+00    4.44119D-02
         9    3.64174D-02  0.00D+00  3.64D-02  3.67D+00    5.07565D-02

 ** RSPCTL MICROITERATION NUMBER    4

       No.  Residual tot.,    conf., and orb.    Bnorm      Frequency 
      ----------------------------------------------------------------
         1    3.87042D-03  0.00D+00  3.87D-03  3.57D+00    0.00000D+00
         2    3.90105D-03  0.00D+00  3.90D-03  3.57D+00    6.34456D-03
         3    3.99494D-03  0.00D+00  3.99D-03  3.58D+00    1.26891D-02
         4    4.15827D-03  0.00D+00  4.16D-03  3.58D+00    1.90337D-02
         5    4.40219D-03  0.00D+00  4.40D-03  3.59D+00    2.53783D-02
         6    4.74419D-03  0.00D+00  4.74D-03  3.61D+00    3.17228D-02
         7    5.21071D-03  0.00D+00  5.21D-03  3.62D+00    3.80674D-02
         8    5.84145D-03  0.00D+00  5.84D-03  3.65D+00    4.44119D-02
         9    6.69716D-03  0.00D+00  6.70D-03  3.68D+00    5.07565D-02

 ** RSPCTL MICROITERATION NUMBER    5

       No.  Residual tot.,    conf., and orb.    Bnorm      Frequency 
      ----------------------------------------------------------------
         1    5.16418D-04  0.00D+00  5.16D-04  3.57D+00    0.00000D+00
         2    5.23095D-04  0.00D+00  5.23D-04  3.57D+00    6.34456D-03
         3    5.43316D-04  0.00D+00  5.43D-04  3.58D+00    1.26891D-02
         4    5.77711D-04  0.00D+00  5.78D-04  3.58D+00    1.90337D-02
         5    6.27537D-04  0.00D+00  6.28D-04  3.59D+00    2.53783D-02
         6    6.94980D-04  0.00D+00  6.95D-04  3.61D+00    3.17228D-02
         7    7.83622D-04  0.00D+00  7.84D-04  3.62D+00    3.80674D-02
         8    8.99173D-04  0.00D+00  8.99D-04  3.65D+00    4.44119D-02
         9    1.05073D-03  0.00D+00  1.05D-03  3.68D+00    5.07565D-02

 *** THE REQUESTED    9 SOLUTION VECTORS CONVERGED

 Convergence of RSP solution vectors, threshold = 1.00D-03
 ---------------------------------------------------------------
 (dimension of paired reduced space:   86)
 RSP solution vector no.    1; norm of residual   1.45D-04
 RSP solution vector no.    2; norm of residual   1.46D-04
 RSP solution vector no.    3; norm of residual   1.52D-04
 RSP solution vector no.    4; norm of residual   1.61D-04
 RSP solution vector no.    5; norm of residual   1.75D-04
 RSP solution vector no.    6; norm of residual   1.93D-04
 RSP solution vector no.    7; norm of residual   2.16D-04
 RSP solution vector no.    8; norm of residual   2.47D-04
 RSP solution vector no.    9; norm of residual   2.86D-04

 *** RSPCTL MICROITERATIONS CONVERGED

@ QRLRVE: SINGLET SOLUTION FOR SYMMETRY    1  ( A  )    LABEL   ZDIPLEN     FREQUENCY   0.000000D+00

@ QRLRVE:  << XDIPLEN  ; ZDIPLEN  >> (   0.00000):   -2.357613881251E-14

@ QRLRVE:  << YDIPLEN  ; ZDIPLEN  >> (   0.00000):   -9.575113298130E-15

@ QRLRVE:  << ZDIPLEN  ; ZDIPLEN  >> (   0.00000):     20.3020503845    

@ QRLRVE: SINGLET SOLUTION FOR SYMMETRY    1  ( A  )    LABEL   ZDIPLEN     FREQUENCY   0.634456D-02

@ QRLRVE:  << XDIPLEN  ; ZDIPLEN  >> (   0.00634):   -2.333916082426E-14

@ QRLRVE:  << YDIPLEN  ; ZDIPLEN  >> (   0.00634):   -9.323591254975E-15

@ QRLRVE:  << ZDIPLEN  ; ZDIPLEN  >> (   0.00634):     20.3044047070    

@ QRLRVE: SINGLET SOLUTION FOR SYMMETRY    1  ( A  )    LABEL   ZDIPLEN     FREQUENCY   0.126891D-01

@ QRLRVE:  << XDIPLEN  ; ZDIPLEN  >> (   0.01269):   -2.261400416785E-14

@ QRLRVE:  << YDIPLEN  ; ZDIPLEN  >> (   0.01269):   -8.554282533822E-15

@ QRLRVE:  << ZDIPLEN  ; ZDIPLEN  >> (   0.01269):     20.3114830082    

@ QRLRVE: SINGLET SOLUTION FOR SYMMETRY    1  ( A  )    LABEL   ZDIPLEN     FREQUENCY   0.190337D-01

@ QRLRVE:  << XDIPLEN  ; ZDIPLEN  >> (   0.01903):   -2.135625261241E-14

@ QRLRVE:  << YDIPLEN  ; ZDIPLEN  >> (   0.01903):   -7.221151075038E-15

@ QRLRVE:  << ZDIPLEN  ; ZDIPLEN  >> (   0.01903):     20.3233326066    

@ QRLRVE: SINGLET SOLUTION FOR SYMMETRY    1  ( A  )    LABEL   ZDIPLEN     FREQUENCY   0.253783D-01

@ QRLRVE:  << XDIPLEN  ; ZDIPLEN  >> (   0.02538):   -1.948564739140E-14

@ QRLRVE:  << YDIPLEN  ; ZDIPLEN  >> (   0.02538):   -5.241024308677E-15

@ QRLRVE:  << ZDIPLEN  ; ZDIPLEN  >> (   0.02538):     20.3400370568    

@ QRLRVE: SINGLET SOLUTION FOR SYMMETRY    1  ( A  )    LABEL   ZDIPLEN     FREQUENCY   0.317228D-01

@ QRLRVE:  << XDIPLEN  ; ZDIPLEN  >> (   0.03172):   -1.687516756770E-14

@ QRLRVE:  << YDIPLEN  ; ZDIPLEN  >> (   0.03172):   -2.482299333495E-15

@ QRLRVE:  << ZDIPLEN  ; ZDIPLEN  >> (   0.03172):     20.3617243387    

@ QRLRVE: SINGLET SOLUTION FOR SYMMETRY    1  ( A  )    LABEL   ZDIPLEN     FREQUENCY   0.380674D-01

@ QRLRVE:  << XDIPLEN  ; ZDIPLEN  >> (   0.03807):   -1.333194314917E-14

@ QRLRVE:  << YDIPLEN  ; ZDIPLEN  >> (   0.03807):    1.254795922616E-15

@ QRLRVE:  << ZDIPLEN  ; ZDIPLEN  >> (   0.03807):     20.3885811104    

@ QRLRVE: SINGLET SOLUTION FOR SYMMETRY    1  ( A  )    LABEL   ZDIPLEN     FREQUENCY   0.444119D-01

@ QRLRVE:  << XDIPLEN  ; ZDIPLEN  >> (   0.04441):   -8.564250991587E-15

@ QRLRVE:  << YDIPLEN  ; ZDIPLEN  >> (   0.04441):    6.272330050961E-15

@ QRLRVE:  << ZDIPLEN  ; ZDIPLEN  >> (   0.04441):     20.4208772410    

@ QRLRVE: SINGLET SOLUTION FOR SYMMETRY    1  ( A  )    LABEL   ZDIPLEN     FREQUENCY   0.507565D-01

@ QRLRVE:  << XDIPLEN  ; ZDIPLEN  >> (   0.05076):   -2.122929195962E-15

@ QRLRVE:  << YDIPLEN  ; ZDIPLEN  >> (   0.05076):    1.303524035722E-14

@ QRLRVE:  << ZDIPLEN  ; ZDIPLEN  >> (   0.05076):     20.4590091758    
 
 ======================================================================
 ---  L I N E A R   R E S P O N S E   F U N C T I O N S --- 
 ======================================================================

 The -<<A;B>>(omega_b) functions from vectors generated
 in a *QUADRA calculation of <<A;B,C>>(omega_b,omega_c)

 Note: the accuracy of off-diagonal elements will be linear
 in the convergence threshold THCLR =  1.00D-03


 Perturbation symmetry.     KSYMOP:           1
 Perturbation spin symmetry.TRPLET:           F
 Orbital variables.         KZWOPT:         912
 Configuration variables.   KZCONF:           0
 Total number of variables. KZVAR :         912

@ Singlet linear response function in a.u.

@ A operator, symmetry, frequency:   XDIPLEN    1 -0.000000
@ B operator, symmetry, frequency:   XDIPLEN    1  0.000000

@ Value of linear response -<<A;B>>(omega):      30.320715772233

@ Singlet linear response function in a.u.

@ A operator, symmetry, frequency:   YDIPLEN    1 -0.000000
@ B operator, symmetry, frequency:   XDIPLEN    1  0.000000

@ Value of linear response -<<A;B>>(omega):      13.067996081072

@ Singlet linear response function in a.u.

@ A operator, symmetry, frequency:   ZDIPLEN    1 -0.000000
@ B operator, symmetry, frequency:   XDIPLEN    1  0.000000

@ Value of linear response -<<A;B>>(omega):      -0.000000000000

@ Singlet linear response function in a.u.

@ A operator, symmetry, frequency:   XDIPLEN    1 -0.006345
@ B operator, symmetry, frequency:   XDIPLEN    1  0.006345

@ Value of linear response -<<A;B>>(omega):      30.327164426160

@ Singlet linear response function in a.u.

@ A operator, symmetry, frequency:   YDIPLEN    1 -0.006345
@ B operator, symmetry, frequency:   XDIPLEN    1  0.006345

@ Value of linear response -<<A;B>>(omega):      13.076128596234

@ Singlet linear response function in a.u.

@ A operator, symmetry, frequency:   ZDIPLEN    1 -0.006345
@ B operator, symmetry, frequency:   XDIPLEN    1  0.006345

@ Value of linear response -<<A;B>>(omega):      -0.000000000000

@ Singlet linear response function in a.u.

@ A operator, symmetry, frequency:   XDIPLEN    1 -0.012689
@ B operator, symmetry, frequency:   XDIPLEN    1  0.012689

@ Value of linear response -<<A;B>>(omega):      30.346547080882

@ Singlet linear response function in a.u.

@ A operator, symmetry, frequency:   YDIPLEN    1 -0.012689
@ B operator, symmetry, frequency:   XDIPLEN    1  0.012689

@ Value of linear response -<<A;B>>(omega):      13.100596250753

@ Singlet linear response function in a.u.

@ A operator, symmetry, frequency:   ZDIPLEN    1 -0.012689
@ B operator, symmetry, frequency:   XDIPLEN    1  0.012689

@ Value of linear response -<<A;B>>(omega):      -0.000000000000

@ Singlet linear response function in a.u.

@ A operator, symmetry, frequency:   XDIPLEN    1 -0.019034
@ B operator, symmetry, frequency:   XDIPLEN    1  0.019034

@ Value of linear response -<<A;B>>(omega):      30.378974581186

@ Singlet linear response function in a.u.

@ A operator, symmetry, frequency:   YDIPLEN    1 -0.019034
@ B operator, symmetry, frequency:   XDIPLEN    1  0.019034

@ Value of linear response -<<A;B>>(omega):      13.141611066113

@ Singlet linear response function in a.u.

@ A operator, symmetry, frequency:   ZDIPLEN    1 -0.019034
@ B operator, symmetry, frequency:   XDIPLEN    1  0.019034

@ Value of linear response -<<A;B>>(omega):      -0.000000000000

@ Singlet linear response function in a.u.

@ A operator, symmetry, frequency:   XDIPLEN    1 -0.025378
@ B operator, symmetry, frequency:   XDIPLEN    1  0.025378

@ Value of linear response -<<A;B>>(omega):      30.424634256977

@ Singlet linear response function in a.u.

@ A operator, symmetry, frequency:   YDIPLEN    1 -0.025378
@ B operator, symmetry, frequency:   XDIPLEN    1  0.025378

@ Value of linear response -<<A;B>>(omega):      13.199532141666

@ Singlet linear response function in a.u.

@ A operator, symmetry, frequency:   ZDIPLEN    1 -0.025378
@ B operator, symmetry, frequency:   XDIPLEN    1  0.025378

@ Value of linear response -<<A;B>>(omega):      -0.000000000000

@ Singlet linear response function in a.u.

@ A operator, symmetry, frequency:   XDIPLEN    1 -0.000000
@ B operator, symmetry, frequency:   YDIPLEN    1  0.000000

@ Value of linear response -<<A;B>>(omega):      13.068987568112

@ Singlet linear response function in a.u.

@ A operator, symmetry, frequency:   YDIPLEN    1 -0.000000
@ B operator, symmetry, frequency:   YDIPLEN    1  0.000000

@ Value of linear response -<<A;B>>(omega):      46.790472496695

@ Singlet linear response function in a.u.

@ A operator, symmetry, frequency:   ZDIPLEN    1 -0.000000
@ B operator, symmetry, frequency:   YDIPLEN    1  0.000000

@ Value of linear response -<<A;B>>(omega):      -0.000000000000

@ Singlet linear response function in a.u.

@ A operator, symmetry, frequency:   XDIPLEN    1 -0.006345
@ B operator, symmetry, frequency:   YDIPLEN    1  0.006345

@ Value of linear response -<<A;B>>(omega):      13.077122300201

@ Singlet linear response function in a.u.

@ A operator, symmetry, frequency:   YDIPLEN    1 -0.006345
@ B operator, symmetry, frequency:   YDIPLEN    1  0.006345

@ Value of linear response -<<A;B>>(omega):      46.810873843143

@ Singlet linear response function in a.u.

@ A operator, symmetry, frequency:   ZDIPLEN    1 -0.006345
@ B operator, symmetry, frequency:   YDIPLEN    1  0.006345

@ Value of linear response -<<A;B>>(omega):      -0.000000000000

[...]
@ B-freq = 0.019034  C-freq = 0.019034     beta(X;Z,Y) =      0.00000000
@ B-freq = 0.019034  C-freq = 0.019034     beta(Y;Z,Y) =     -0.00000000
@ B-freq = 0.019034  C-freq = 0.019034     beta(Z;Z,Y) =     29.23445959
@ B-freq = 0.025378  C-freq = 0.019034     beta(X;Z,Y) =      0.00000000
@ B-freq = 0.025378  C-freq = 0.019034     beta(Y;Z,Y) =     -0.00000000
@ B-freq = 0.025378  C-freq = 0.019034     beta(Z;Z,Y) =     29.21751041
@ B-freq = 0.000000  C-freq = 0.025378     beta(X;X,Y) = beta(X,Y,X)
@ B-freq = 0.000000  C-freq = 0.025378     beta(Y;X,Y) = beta(Y,Y,X)
@ B-freq = 0.000000  C-freq = 0.025378     beta(Z;X,Y) = beta(Z,Y,X)
@ B-freq = 0.006345  C-freq = 0.025378     beta(X;X,Y) = beta(X,Y,X)
@ B-freq = 0.006345  C-freq = 0.025378     beta(Y;X,Y) = beta(Y,Y,X)
@ B-freq = 0.006345  C-freq = 0.025378     beta(Z;X,Y) = beta(Z,Y,X)
@ B-freq = 0.012689  C-freq = 0.025378     beta(X;X,Y) = beta(X,Y,X)
@ B-freq = 0.012689  C-freq = 0.025378     beta(Y;X,Y) = beta(Y,Y,X)
@ B-freq = 0.012689  C-freq = 0.025378     beta(Z;X,Y) = beta(Z,Y,X)
@ B-freq = 0.019034  C-freq = 0.025378     beta(X;X,Y) = beta(X,Y,X)
@ B-freq = 0.019034  C-freq = 0.025378     beta(Y;X,Y) = beta(Y,Y,X)
@ B-freq = 0.019034  C-freq = 0.025378     beta(Z;X,Y) = beta(Z,Y,X)
@ B-freq = 0.025378  C-freq = 0.025378     beta(X;X,Y) = beta(X,Y,X)
@ B-freq = 0.025378  C-freq = 0.025378     beta(Y;X,Y) = beta(Y,Y,X)
@ B-freq = 0.025378  C-freq = 0.025378     beta(Z;X,Y) = beta(Z,Y,X)
@ B-freq = 0.000000  C-freq = 0.025378     beta(X;Y,Y) = beta(X,Y,Y)
@ B-freq = 0.000000  C-freq = 0.025378     beta(Y;Y,Y) = beta(Y,Y,Y)
@ B-freq = 0.000000  C-freq = 0.025378     beta(Z;Y,Y) = beta(Z,Y,Y)
@ B-freq = 0.006345  C-freq = 0.025378     beta(X;Y,Y) = beta(X,Y,Y)
@ B-freq = 0.006345  C-freq = 0.025378     beta(Y;Y,Y) = beta(Y,Y,Y)
@ B-freq = 0.006345  C-freq = 0.025378     beta(Z;Y,Y) = beta(Z,Y,Y)
@ B-freq = 0.012689  C-freq = 0.025378     beta(X;Y,Y) = beta(X,Y,Y)
@ B-freq = 0.012689  C-freq = 0.025378     beta(Y;Y,Y) = beta(Y,Y,Y)
@ B-freq = 0.012689  C-freq = 0.025378     beta(Z;Y,Y) = beta(Z,Y,Y)
@ B-freq = 0.019034  C-freq = 0.025378     beta(X;Y,Y) = beta(X,Y,Y)
@ B-freq = 0.019034  C-freq = 0.025378     beta(Y;Y,Y) = beta(Y,Y,Y)
@ B-freq = 0.019034  C-freq = 0.025378     beta(Z;Y,Y) = beta(Z,Y,Y)
@ B-freq = 0.025378  C-freq = 0.025378     beta(X;Y,Y) =     -0.22902837
@ B-freq = 0.025378  C-freq = 0.025378     beta(Y;Y,Y) =     44.86720968
@ B-freq = 0.025378  C-freq = 0.025378     beta(Z;Y,Y) =     -0.00000000
@ B-freq = 0.000000  C-freq = 0.025378     beta(X;Z,Y) =      0.00000000
@ B-freq = 0.000000  C-freq = 0.025378     beta(Y;Z,Y) =     -0.00000000
@ B-freq = 0.000000  C-freq = 0.025378     beta(Z;Z,Y) =     29.40806430
@ B-freq = 0.006345  C-freq = 0.025378     beta(X;Z,Y) =      0.00000000
@ B-freq = 0.006345  C-freq = 0.025378     beta(Y;Z,Y) =     -0.00000000
@ B-freq = 0.006345  C-freq = 0.025378     beta(Z;Z,Y) =     29.41055368
@ B-freq = 0.012689  C-freq = 0.025378     beta(X;Z,Y) =      0.00000000
@ B-freq = 0.012689  C-freq = 0.025378     beta(Y;Z,Y) =     -0.00000000
@ B-freq = 0.012689  C-freq = 0.025378     beta(Z;Z,Y) =     29.40848498
@ B-freq = 0.019034  C-freq = 0.025378     beta(X;Z,Y) =      0.00000000
@ B-freq = 0.019034  C-freq = 0.025378     beta(Y;Z,Y) =     -0.00000000
@ B-freq = 0.019034  C-freq = 0.025378     beta(Z;Z,Y) =     29.39498449
@ B-freq = 0.025378  C-freq = 0.025378     beta(X;Z,Y) =      0.00000000
@ B-freq = 0.025378  C-freq = 0.025378     beta(Y;Z,Y) =     -0.00000000
@ B-freq = 0.025378  C-freq = 0.025378     beta(Z;Z,Y) =     29.35879159
@ B-freq = 0.000000  C-freq = 0.000000     beta(X;X,Z) = beta(Z,X,X)
@ B-freq = 0.000000  C-freq = 0.000000     beta(Y;X,Z) = beta(Z,Y,X)
@ B-freq = 0.000000  C-freq = 0.000000     beta(Z;X,Z) = beta(Z,Z,X)
@ B-freq = 0.006345  C-freq = 0.000000     beta(X;X,Z) = beta(X,Z,X)
@ B-freq = 0.006345  C-freq = 0.000000     beta(Y;X,Z) = beta(Y,Z,X)
@ B-freq = 0.006345  C-freq = 0.000000     beta(Z;X,Z) = beta(Z,Z,X)
@ B-freq = 0.012689  C-freq = 0.000000     beta(X;X,Z) = beta(X,Z,X)
@ B-freq = 0.012689  C-freq = 0.000000     beta(Y;X,Z) = beta(Y,Z,X)
@ B-freq = 0.012689  C-freq = 0.000000     beta(Z;X,Z) = beta(Z,Z,X)
@ B-freq = 0.019034  C-freq = 0.000000     beta(X;X,Z) = beta(X,Z,X)
@ B-freq = 0.019034  C-freq = 0.000000     beta(Y;X,Z) = beta(Y,Z,X)
@ B-freq = 0.019034  C-freq = 0.000000     beta(Z;X,Z) = beta(Z,Z,X)
@ B-freq = 0.025378  C-freq = 0.000000     beta(X;X,Z) = beta(X,Z,X)
@ B-freq = 0.025378  C-freq = 0.000000     beta(Y;X,Z) = beta(Y,Z,X)
@ B-freq = 0.025378  C-freq = 0.000000     beta(Z;X,Z) = beta(Z,Z,X)
@ B-freq = 0.000000  C-freq = 0.000000     beta(X;Y,Z) = beta(Z,Y,X)
@ B-freq = 0.000000  C-freq = 0.000000     beta(Y;Y,Z) = beta(Z,Y,Y)
@ B-freq = 0.000000  C-freq = 0.000000     beta(Z;Y,Z) = beta(Z,Z,Y)
@ B-freq = 0.006345  C-freq = 0.000000     beta(X;Y,Z) = beta(X,Z,Y)
@ B-freq = 0.006345  C-freq = 0.000000     beta(Y;Y,Z) = beta(Y,Z,Y)
@ B-freq = 0.006345  C-freq = 0.000000     beta(Z;Y,Z) = beta(Z,Z,Y)
@ B-freq = 0.012689  C-freq = 0.000000     beta(X;Y,Z) = beta(X,Z,Y)
@ B-freq = 0.012689  C-freq = 0.000000     beta(Y;Y,Z) = beta(Y,Z,Y)
@ B-freq = 0.012689  C-freq = 0.000000     beta(Z;Y,Z) = beta(Z,Z,Y)
@ B-freq = 0.019034  C-freq = 0.000000     beta(X;Y,Z) = beta(X,Z,Y)
@ B-freq = 0.019034  C-freq = 0.000000     beta(Y;Y,Z) = beta(Y,Z,Y)
@ B-freq = 0.019034  C-freq = 0.000000     beta(Z;Y,Z) = beta(Z,Z,Y)
@ B-freq = 0.025378  C-freq = 0.000000     beta(X;Y,Z) = beta(X,Z,Y)
@ B-freq = 0.025378  C-freq = 0.000000     beta(Y;Y,Z) = beta(Y,Z,Y)
@ B-freq = 0.025378  C-freq = 0.000000     beta(Z;Y,Z) = beta(Z,Z,Y)
@ B-freq = 0.000000  C-freq = 0.000000     beta(X;Z,Z) = beta(Z,Z,X)
@ B-freq = 0.000000  C-freq = 0.000000     beta(Y;Z,Z) = beta(Z,Z,Y)
@ B-freq = 0.000000  C-freq = 0.000000     beta(X;Z,Z) =     15.76581456
@ B-freq = 0.000000  C-freq = 0.000000     beta(Y;Z,Z) =     29.00055943
@ B-freq = 0.000000  C-freq = 0.000000     beta(Z;Z,Z) =      0.00000000
@ B-freq = 0.006345  C-freq = 0.000000     beta(X;Z,Z) =     15.77846739
@ B-freq = 0.006345  C-freq = 0.000000     beta(Y;Z,Z) =     29.02597262
@ B-freq = 0.006345  C-freq = 0.000000     beta(Z;Z,Z) =      0.00000000
@ B-freq = 0.012689  C-freq = 0.000000     beta(X;Z,Z) =     15.81647557
@ B-freq = 0.012689  C-freq = 0.000000     beta(Y;Z,Z) =     29.10226661
@ B-freq = 0.012689  C-freq = 0.000000     beta(Z;Z,Z) =      0.00000000
@ B-freq = 0.019034  C-freq = 0.000000     beta(X;Z,Z) =     15.87998108
@ B-freq = 0.019034  C-freq = 0.000000     beta(Y;Z,Z) =     29.22958130
@ B-freq = 0.019034  C-freq = 0.000000     beta(Z;Z,Z) =      0.00000000
@ B-freq = 0.025378  C-freq = 0.000000     beta(X;Z,Z) =     15.96919465
@ B-freq = 0.025378  C-freq = 0.000000     beta(Y;Z,Z) =     29.40806500
@ B-freq = 0.025378  C-freq = 0.000000     beta(Z;Z,Z) =      0.00000000
@ B-freq = 0.000000  C-freq = 0.006345     beta(X;X,Z) = beta(X,Z,X)
@ B-freq = 0.000000  C-freq = 0.006345     beta(Y;X,Z) = beta(Y,Z,X)
@ B-freq = 0.000000  C-freq = 0.006345     beta(Z;X,Z) = beta(Z,Z,X)
@ B-freq = 0.006345  C-freq = 0.006345     beta(X;X,Z) = beta(X,Z,X)
@ B-freq = 0.006345  C-freq = 0.006345     beta(Y;X,Z) = beta(Y,Z,X)
@ B-freq = 0.006345  C-freq = 0.006345     beta(Z;X,Z) = beta(Z,Z,X)
@ B-freq = 0.012689  C-freq = 0.006345     beta(X;X,Z) = beta(X,Z,X)
@ B-freq = 0.012689  C-freq = 0.006345     beta(Y;X,Z) = beta(Y,Z,X)
@ B-freq = 0.012689  C-freq = 0.006345     beta(Z;X,Z) = beta(Z,Z,X)
@ B-freq = 0.019034  C-freq = 0.006345     beta(X;X,Z) = beta(X,Z,X)
@ B-freq = 0.019034  C-freq = 0.006345     beta(Y;X,Z) = beta(Y,Z,X)
@ B-freq = 0.019034  C-freq = 0.006345     beta(Z;X,Z) = beta(Z,Z,X)
@ B-freq = 0.025378  C-freq = 0.006345     beta(X;X,Z) = beta(X,Z,X)
@ B-freq = 0.025378  C-freq = 0.006345     beta(Y;X,Z) = beta(Y,Z,X)
@ B-freq = 0.025378  C-freq = 0.006345     beta(Z;X,Z) = beta(Z,Z,X)
@ B-freq = 0.000000  C-freq = 0.006345     beta(X;Y,Z) = beta(X,Z,Y)
@ B-freq = 0.000000  C-freq = 0.006345     beta(Y;Y,Z) = beta(Y,Z,Y)
@ B-freq = 0.000000  C-freq = 0.006345     beta(Z;Y,Z) = beta(Z,Z,Y)
@ B-freq = 0.006345  C-freq = 0.006345     beta(X;Y,Z) = beta(X,Z,Y)
@ B-freq = 0.006345  C-freq = 0.006345     beta(Y;Y,Z) = beta(Y,Z,Y)
@ B-freq = 0.006345  C-freq = 0.006345     beta(Z;Y,Z) = beta(Z,Z,Y)
@ B-freq = 0.012689  C-freq = 0.006345     beta(X;Y,Z) = beta(X,Z,Y)
@ B-freq = 0.012689  C-freq = 0.006345     beta(Y;Y,Z) = beta(Y,Z,Y)
@ B-freq = 0.012689  C-freq = 0.006345     beta(Z;Y,Z) = beta(Z,Z,Y)
@ B-freq = 0.019034  C-freq = 0.006345     beta(X;Y,Z) = beta(X,Z,Y)
@ B-freq = 0.019034  C-freq = 0.006345     beta(Y;Y,Z) = beta(Y,Z,Y)
@ B-freq = 0.019034  C-freq = 0.006345     beta(Z;Y,Z) = beta(Z,Z,Y)
@ B-freq = 0.025378  C-freq = 0.006345     beta(X;Y,Z) = beta(X,Z,Y)
@ B-freq = 0.025378  C-freq = 0.006345     beta(Y;Y,Z) = beta(Y,Z,Y)
@ B-freq = 0.025378  C-freq = 0.006345     beta(Z;Y,Z) = beta(Z,Z,Y)
@ B-freq = 0.000000  C-freq = 0.006345     beta(X;Z,Z) = beta(X,Z,Z)
@ B-freq = 0.000000  C-freq = 0.006345     beta(Y;Z,Z) = beta(Y,Z,Z)
@ B-freq = 0.000000  C-freq = 0.006345     beta(Z;Z,Z) = beta(Z,Z,Z)
@ B-freq = 0.006345  C-freq = 0.006345     beta(X;Z,Z) =     15.81461447
@ B-freq = 0.006345  C-freq = 0.006345     beta(Y;Z,Z) =     29.10052842
@ B-freq = 0.006345  C-freq = 0.006345     beta(Z;Z,Z) =      0.00000000
@ B-freq = 0.012689  C-freq = 0.006345     beta(X;Z,Z) =     15.87644129
@ B-freq = 0.012689  C-freq = 0.006345     beta(Y;Z,Z) =     29.22669078
@ B-freq = 0.012689  C-freq = 0.006345     beta(Z;Z,Z) =      0.00000000
@ B-freq = 0.019034  C-freq = 0.006345     beta(X;Z,Z) =     15.96432587
@ B-freq = 0.019034  C-freq = 0.006345     beta(Y;Z,Z) =     29.40512172
@ B-freq = 0.019034  C-freq = 0.006345     beta(Z;Z,Z) =      0.00000000
@ B-freq = 0.025378  C-freq = 0.006345     beta(X;Z,Z) =     16.07872917
@ B-freq = 0.025378  C-freq = 0.006345     beta(Y;Z,Z) =     29.63652079
@ B-freq = 0.025378  C-freq = 0.006345     beta(Z;Z,Z) =      0.00000000
@ B-freq = 0.000000  C-freq = 0.012689     beta(X;X,Z) = beta(X,Z,X)
@ B-freq = 0.000000  C-freq = 0.012689     beta(Y;X,Z) = beta(Y,Z,X)
@ B-freq = 0.000000  C-freq = 0.012689     beta(Z;X,Z) = beta(Z,Z,X)
@ B-freq = 0.006345  C-freq = 0.012689     beta(X;X,Z) = beta(X,Z,X)
@ B-freq = 0.006345  C-freq = 0.012689     beta(Y;X,Z) = beta(Y,Z,X)
@ B-freq = 0.006345  C-freq = 0.012689     beta(Z;X,Z) = beta(Z,Z,X)
@ B-freq = 0.012689  C-freq = 0.012689     beta(X;X,Z) = beta(X,Z,X)
@ B-freq = 0.012689  C-freq = 0.012689     beta(Y;X,Z) = beta(Y,Z,X)
@ B-freq = 0.012689  C-freq = 0.012689     beta(Z;X,Z) = beta(Z,Z,X)
@ B-freq = 0.019034  C-freq = 0.012689     beta(X;X,Z) = beta(X,Z,X)
@ B-freq = 0.019034  C-freq = 0.012689     beta(Y;X,Z) = beta(Y,Z,X)
@ B-freq = 0.019034  C-freq = 0.012689     beta(Z;X,Z) = beta(Z,Z,X)
@ B-freq = 0.025378  C-freq = 0.012689     beta(X;X,Z) = beta(X,Z,X)
@ B-freq = 0.025378  C-freq = 0.012689     beta(Y;X,Z) = beta(Y,Z,X)
@ B-freq = 0.025378  C-freq = 0.012689     beta(Z;X,Z) = beta(Z,Z,X)
@ B-freq = 0.000000  C-freq = 0.012689     beta(X;Y,Z) = beta(X,Z,Y)
@ B-freq = 0.000000  C-freq = 0.012689     beta(Y;Y,Z) = beta(Y,Z,Y)
@ B-freq = 0.000000  C-freq = 0.012689     beta(Z;Y,Z) = beta(Z,Z,Y)
@ B-freq = 0.006345  C-freq = 0.012689     beta(X;Y,Z) = beta(X,Z,Y)
@ B-freq = 0.006345  C-freq = 0.012689     beta(Y;Y,Z) = beta(Y,Z,Y)
@ B-freq = 0.006345  C-freq = 0.012689     beta(Z;Y,Z) = beta(Z,Z,Y)
@ B-freq = 0.012689  C-freq = 0.012689     beta(X;Y,Z) = beta(X,Z,Y)
@ B-freq = 0.012689  C-freq = 0.012689     beta(Y;Y,Z) = beta(Y,Z,Y)
@ B-freq = 0.012689  C-freq = 0.012689     beta(Z;Y,Z) = beta(Z,Z,Y)
@ B-freq = 0.019034  C-freq = 0.012689     beta(X;Y,Z) = beta(X,Z,Y)
@ B-freq = 0.019034  C-freq = 0.012689     beta(Y;Y,Z) = beta(Y,Z,Y)
@ B-freq = 0.019034  C-freq = 0.012689     beta(Z;Y,Z) = beta(Z,Z,Y)
@ B-freq = 0.025378  C-freq = 0.012689     beta(X;Y,Z) = beta(X,Z,Y)
@ B-freq = 0.025378  C-freq = 0.012689     beta(Y;Y,Z) = beta(Y,Z,Y)
@ B-freq = 0.025378  C-freq = 0.012689     beta(Z;Y,Z) = beta(Z,Z,Y)
@ B-freq = 0.000000  C-freq = 0.012689     beta(X;Z,Z) = beta(X,Z,Z)
@ B-freq = 0.000000  C-freq = 0.012689     beta(Y;Z,Z) = beta(Y,Z,Z)
@ B-freq = 0.000000  C-freq = 0.012689     beta(Z;Z,Z) = beta(Z,Z,Z)
@ B-freq = 0.006345  C-freq = 0.012689     beta(X;Z,Z) = beta(X,Z,Z)
@ B-freq = 0.006345  C-freq = 0.012689     beta(Y;Z,Z) = beta(Y,Z,Z)
@ B-freq = 0.006345  C-freq = 0.012689     beta(Z;Z,Z) = beta(Z,Z,Z)
@ B-freq = 0.012689  C-freq = 0.012689     beta(X;Z,Z) =     15.96261344
@ B-freq = 0.012689  C-freq = 0.012689     beta(Y;Z,Z) =     29.40391157
@ B-freq = 0.012689  C-freq = 0.012689     beta(Z;Z,Z) =      0.00000000
@ B-freq = 0.019034  C-freq = 0.012689     beta(X;Z,Z) =     16.07561846
@ B-freq = 0.019034  C-freq = 0.012689     beta(Y;Z,Z) =     29.63514265
@ B-freq = 0.019034  C-freq = 0.012689     beta(Z;Z,Z) =      0.00000000
@ B-freq = 0.025378  C-freq = 0.012689     beta(X;Z,Z) =     16.21618504
@ B-freq = 0.025378  C-freq = 0.012689     beta(Y;Z,Z) =     29.92167678
@ B-freq = 0.025378  C-freq = 0.012689     beta(Z;Z,Z) =      0.00000000
@ B-freq = 0.000000  C-freq = 0.019034     beta(X;X,Z) = beta(X,Z,X)
@ B-freq = 0.000000  C-freq = 0.019034     beta(Y;X,Z) = beta(Y,Z,X)
@ B-freq = 0.000000  C-freq = 0.019034     beta(Z;X,Z) = beta(Z,Z,X)
@ B-freq = 0.006345  C-freq = 0.019034     beta(X;X,Z) = beta(X,Z,X)
@ B-freq = 0.006345  C-freq = 0.019034     beta(Y;X,Z) = beta(Y,Z,X)
@ B-freq = 0.006345  C-freq = 0.019034     beta(Z;X,Z) = beta(Z,Z,X)
@ B-freq = 0.012689  C-freq = 0.019034     beta(X;X,Z) = beta(X,Z,X)
@ B-freq = 0.012689  C-freq = 0.019034     beta(Y;X,Z) = beta(Y,Z,X)
@ B-freq = 0.012689  C-freq = 0.019034     beta(Z;X,Z) = beta(Z,Z,X)
@ B-freq = 0.019034  C-freq = 0.019034     beta(X;X,Z) = beta(X,Z,X)
@ B-freq = 0.019034  C-freq = 0.019034     beta(Y;X,Z) = beta(Y,Z,X)
@ B-freq = 0.019034  C-freq = 0.019034     beta(Z;X,Z) = beta(Z,Z,X)
@ B-freq = 0.025378  C-freq = 0.019034     beta(X;X,Z) = beta(X,Z,X)
@ B-freq = 0.025378  C-freq = 0.019034     beta(Y;X,Z) = beta(Y,Z,X)
@ B-freq = 0.025378  C-freq = 0.019034     beta(Z;X,Z) = beta(Z,Z,X)
@ B-freq = 0.000000  C-freq = 0.019034     beta(X;Y,Z) = beta(X,Z,Y)
@ B-freq = 0.000000  C-freq = 0.019034     beta(Y;Y,Z) = beta(Y,Z,Y)
@ B-freq = 0.000000  C-freq = 0.019034     beta(Z;Y,Z) = beta(Z,Z,Y)
@ B-freq = 0.006345  C-freq = 0.019034     beta(X;Y,Z) = beta(X,Z,Y)
@ B-freq = 0.006345  C-freq = 0.019034     beta(Y;Y,Z) = beta(Y,Z,Y)
@ B-freq = 0.006345  C-freq = 0.019034     beta(Z;Y,Z) = beta(Z,Z,Y)
@ B-freq = 0.012689  C-freq = 0.019034     beta(X;Y,Z) = beta(X,Z,Y)
@ B-freq = 0.012689  C-freq = 0.019034     beta(Y;Y,Z) = beta(Y,Z,Y)
@ B-freq = 0.012689  C-freq = 0.019034     beta(Z;Y,Z) = beta(Z,Z,Y)
@ B-freq = 0.019034  C-freq = 0.019034     beta(X;Y,Z) = beta(X,Z,Y)
@ B-freq = 0.019034  C-freq = 0.019034     beta(Y;Y,Z) = beta(Y,Z,Y)
@ B-freq = 0.019034  C-freq = 0.019034     beta(Z;Y,Z) = beta(Z,Z,Y)
@ B-freq = 0.025378  C-freq = 0.019034     beta(X;Y,Z) = beta(X,Z,Y)
@ B-freq = 0.025378  C-freq = 0.019034     beta(Y;Y,Z) = beta(Y,Z,Y)
@ B-freq = 0.025378  C-freq = 0.019034     beta(Z;Y,Z) = beta(Z,Z,Y)
@ B-freq = 0.000000  C-freq = 0.019034     beta(X;Z,Z) = beta(X,Z,Z)
@ B-freq = 0.000000  C-freq = 0.019034     beta(Y;Z,Z) = beta(Y,Z,Z)
@ B-freq = 0.000000  C-freq = 0.019034     beta(Z;Z,Z) = beta(Z,Z,Z)
@ B-freq = 0.006345  C-freq = 0.019034     beta(X;Z,Z) = beta(X,Z,Z)
@ B-freq = 0.006345  C-freq = 0.019034     beta(Y;Z,Z) = beta(Y,Z,Z)
@ B-freq = 0.006345  C-freq = 0.019034     beta(Z;Z,Z) = beta(Z,Z,Z)
@ B-freq = 0.012689  C-freq = 0.019034     beta(X;Z,Z) = beta(X,Z,Z)
@ B-freq = 0.012689  C-freq = 0.019034     beta(Y;Z,Z) = beta(Y,Z,Z)
@ B-freq = 0.012689  C-freq = 0.019034     beta(Z;Z,Z) = beta(Z,Z,Z)
@ B-freq = 0.019034  C-freq = 0.019034     beta(X;Z,Z) =     16.21475243
@ B-freq = 0.019034  C-freq = 0.019034     beta(Y;Z,Z) =     29.92145467
@ B-freq = 0.019034  C-freq = 0.019034     beta(Z;Z,Z) =      0.00000000
@ B-freq = 0.025378  C-freq = 0.019034     beta(X;Z,Z) =     16.38274925
@ B-freq = 0.025378  C-freq = 0.019034     beta(Y;Z,Z) =     30.26600382
@ B-freq = 0.025378  C-freq = 0.019034     beta(Z;Z,Z) =      0.00000000
@ B-freq = 0.000000  C-freq = 0.025378     beta(X;X,Z) = beta(X,Z,X)
@ B-freq = 0.000000  C-freq = 0.025378     beta(Y;X,Z) = beta(Y,Z,X)
@ B-freq = 0.000000  C-freq = 0.025378     beta(Z;X,Z) = beta(Z,Z,X)
@ B-freq = 0.006345  C-freq = 0.025378     beta(X;X,Z) = beta(X,Z,X)
@ B-freq = 0.006345  C-freq = 0.025378     beta(Y;X,Z) = beta(Y,Z,X)
@ B-freq = 0.006345  C-freq = 0.025378     beta(Z;X,Z) = beta(Z,Z,X)
@ B-freq = 0.012689  C-freq = 0.025378     beta(X;X,Z) = beta(X,Z,X)
@ B-freq = 0.012689  C-freq = 0.025378     beta(Y;X,Z) = beta(Y,Z,X)
@ B-freq = 0.012689  C-freq = 0.025378     beta(Z;X,Z) = beta(Z,Z,X)
@ B-freq = 0.019034  C-freq = 0.025378     beta(X;X,Z) = beta(X,Z,X)
@ B-freq = 0.019034  C-freq = 0.025378     beta(Y;X,Z) = beta(Y,Z,X)
@ B-freq = 0.019034  C-freq = 0.025378     beta(Z;X,Z) = beta(Z,Z,X)
@ B-freq = 0.025378  C-freq = 0.025378     beta(X;X,Z) = beta(X,Z,X)
@ B-freq = 0.025378  C-freq = 0.025378     beta(Y;X,Z) = beta(Y,Z,X)
@ B-freq = 0.025378  C-freq = 0.025378     beta(Z;X,Z) = beta(Z,Z,X)
@ B-freq = 0.000000  C-freq = 0.025378     beta(X;Y,Z) = beta(X,Z,Y)
@ B-freq = 0.000000  C-freq = 0.025378     beta(Y;Y,Z) = beta(Y,Z,Y)
@ B-freq = 0.000000  C-freq = 0.025378     beta(Z;Y,Z) = beta(Z,Z,Y)
@ B-freq = 0.006345  C-freq = 0.025378     beta(X;Y,Z) = beta(X,Z,Y)
@ B-freq = 0.006345  C-freq = 0.025378     beta(Y;Y,Z) = beta(Y,Z,Y)
@ B-freq = 0.006345  C-freq = 0.025378     beta(Z;Y,Z) = beta(Z,Z,Y)
@ B-freq = 0.012689  C-freq = 0.025378     beta(X;Y,Z) = beta(X,Z,Y)
@ B-freq = 0.012689  C-freq = 0.025378     beta(Y;Y,Z) = beta(Y,Z,Y)
@ B-freq = 0.012689  C-freq = 0.025378     beta(Z;Y,Z) = beta(Z,Z,Y)
@ B-freq = 0.019034  C-freq = 0.025378     beta(X;Y,Z) = beta(X,Z,Y)
@ B-freq = 0.019034  C-freq = 0.025378     beta(Y;Y,Z) = beta(Y,Z,Y)
@ B-freq = 0.019034  C-freq = 0.025378     beta(Z;Y,Z) = beta(Z,Z,Y)
@ B-freq = 0.025378  C-freq = 0.025378     beta(X;Y,Z) = beta(X,Z,Y)
@ B-freq = 0.025378  C-freq = 0.025378     beta(Y;Y,Z) = beta(Y,Z,Y)
@ B-freq = 0.025378  C-freq = 0.025378     beta(Z;Y,Z) = beta(Z,Z,Y)
@ B-freq = 0.000000  C-freq = 0.025378     beta(X;Z,Z) = beta(X,Z,Z)
@ B-freq = 0.000000  C-freq = 0.025378     beta(Y;Z,Z) = beta(Y,Z,Z)
@ B-freq = 0.000000  C-freq = 0.025378     beta(Z;Z,Z) = beta(Z,Z,Z)
@ B-freq = 0.006345  C-freq = 0.025378     beta(X;Z,Z) = beta(X,Z,Z)
@ B-freq = 0.006345  C-freq = 0.025378     beta(Y;Z,Z) = beta(Y,Z,Z)
@ B-freq = 0.006345  C-freq = 0.025378     beta(Z;Z,Z) = beta(Z,Z,Z)
@ B-freq = 0.012689  C-freq = 0.025378     beta(X;Z,Z) = beta(X,Z,Z)
@ B-freq = 0.012689  C-freq = 0.025378     beta(Y;Z,Z) = beta(Y,Z,Z)
@ B-freq = 0.012689  C-freq = 0.025378     beta(Z;Z,Z) = beta(Z,Z,Z)
@ B-freq = 0.019034  C-freq = 0.025378     beta(X;Z,Z) = beta(X,Z,Z)
@ B-freq = 0.019034  C-freq = 0.025378     beta(Y;Z,Z) = beta(Y,Z,Z)
@ B-freq = 0.019034  C-freq = 0.025378     beta(Z;Z,Z) = beta(Z,Z,Z)
@ B-freq = 0.025378  C-freq = 0.025378     beta(X;Z,Z) =     16.57976991
@ B-freq = 0.025378  C-freq = 0.025378     beta(Y;Z,Z) =     30.67218300
@ B-freq = 0.025378  C-freq = 0.025378     beta(Z;Z,Z) =      0.00000000

  Total CPU  time used in RESPONSE:  27.61 seconds
  Total wall time used in RESPONSE:  27.68 seconds


                   .-------------------------------------------.
                   | End of Dynamic Property Section (RESPONS) |
                   `-------------------------------------------'

  Total CPU  time used in DALTON:  29.75 seconds
  Total wall time used in DALTON:  29.95 seconds

 
     Date and time (Linux)  : Wed Sep 13 18:55:06 2023
     Host name              : sn-mem                                  
