

     ************************************************************************
     *************** Dalton - An Electronic Structure Program ***************
     ************************************************************************

    This is output from DALTON release Dalton2020.0 (2020)
         ( Web site: http://daltonprogram.org )

   ----------------------------------------------------------------------------

    NOTE:
     
    Dalton is an experimental code for the evaluation of molecular
    properties using (MC)SCF, DFT, CI, and CC wave functions.
    The authors accept no responsibility for the performance of
    the code or for the correctness of the results.
     
    The code (in whole or part) is provided under a licence and
    is not to be reproduced for further distribution without
    the written permission of the authors or their representatives.
     
    See the home page "http://daltonprogram.org" for further information.
     
    If results obtained with this code are published,
    the appropriate citations would be both of:
     
       K. Aidas, C. Angeli, K. L. Bak, V. Bakken, R. Bast,
       L. Boman, O. Christiansen, R. Cimiraglia, S. Coriani,
       P. Dahle, E. K. Dalskov, U. Ekstroem,
       T. Enevoldsen, J. J. Eriksen, P. Ettenhuber, B. Fernandez,
       L. Ferrighi, H. Fliegl, L. Frediani, K. Hald, A. Halkier,
       C. Haettig, H. Heiberg, T. Helgaker, A. C. Hennum,
       H. Hettema, E. Hjertenaes, S. Hoest, I.-M. Hoeyvik,
       M. F. Iozzi, B. Jansik, H. J. Aa. Jensen, D. Jonsson,
       P. Joergensen, J. Kauczor, S. Kirpekar,
       T. Kjaergaard, W. Klopper, S. Knecht, R. Kobayashi, H. Koch,
       J. Kongsted, A. Krapp, K. Kristensen, A. Ligabue,
       O. B. Lutnaes, J. I. Melo, K. V. Mikkelsen, R. H. Myhre,
       C. Neiss, C. B. Nielsen, P. Norman, J. Olsen,
       J. M. H. Olsen, A. Osted, M. J. Packer, F. Pawlowski,
       T. B. Pedersen, P. F. Provasi, S. Reine, Z. Rinkevicius,
       T. A. Ruden, K. Ruud, V. Rybkin, P. Salek, C. C. M. Samson,
       A. Sanchez de Meras, T. Saue, S. P. A. Sauer,
       B. Schimmelpfennig, K. Sneskov, A. H. Steindal,
       K. O. Sylvester-Hvid, P. R. Taylor, A. M. Teale,
       E. I. Tellgren, D. P. Tew, A. J. Thorvaldsen, L. Thoegersen,
       O. Vahtras, M. A. Watson, D. J. D. Wilson, M. Ziolkowski
       and H. Agren,
       "The Dalton quantum chemistry program system",
       WIREs Comput. Mol. Sci. 2014, 4:269–284 (doi: 10.1002/wcms.1172)
     
    and
     
       Dalton, a molecular electronic structure program,
       Release Dalton2020.0 (2020), see http://daltonprogram.org
   ----------------------------------------------------------------------------

    Authors in alphabetical order (Major contribution(s) in parenthesis):

  Kestutis Aidas,           Vilnius University,           Lithuania   (QM/MM)
  Celestino Angeli,         University of Ferrara,        Italy       (NEVPT2)
  Keld L. Bak,              UNI-C,                        Denmark     (AOSOPPA, non-adiabatic coupling, magnetic properties)
  Vebjoern Bakken,          University of Oslo,           Norway      (DALTON; geometry optimizer, symmetry detection)
  Radovan Bast,             UiT The Arctic U. of Norway,  Norway      (DALTON installation and execution frameworks)
  Pablo Baudin,             University of Valencia,       Spain       (Cholesky excitation energies)
  Linus Boman,              NTNU,                         Norway      (Cholesky decomposition and subsystems)
  Bruno N. Cabral Tenorio,  Technical Univ. of Denmark,   Denmark     (Lanczos-based CC methods)
  Ove Christiansen,         Aarhus University,            Denmark     (CC module)
  Renzo Cimiraglia,         University of Ferrara,        Italy       (NEVPT2)
  Sonia Coriani,            Technical Univ. of Denmark,   Denmark     (CC and RESPONS modules)
  Janusz Cukras,            University of Warsaw,         Poland      (MChD in RESPONS)
  Paal Dahle,               University of Oslo,           Norway      (Parallelization)
  Erik K. Dalskov,          UNI-C,                        Denmark     (SOPPA)
  Thomas Enevoldsen,        Univ. of Southern Denmark,    Denmark     (SOPPA)
  Janus J. Eriksen,         Aarhus University,            Denmark     (Polarizable embedding, TDA)
  Rasmus Faber,             Technical Univ. of Denmark,   Denmark     (Vib.avg. NMR w. SOPPA, parallel AO-SOPPA, CVS-CC and EOMCC)
  Tobias Fahleson,          KTH Stockholm,                Sweden      (Damped cubic response)
  Berta Fernandez,          U. of Santiago de Compostela, Spain       (Doublet spin, ESR in RESPONS)
  Lara Ferrighi,            Aarhus University,            Denmark     (PCM Cubic response)
  Heike Fliegl,             University of Oslo,           Norway      (CCSD(R12))
  Luca Frediani,            UiT The Arctic U. of Norway,  Norway      (PCM)
  Emmanuel Fromager,        Univ. Strasbourg,             France      (MC-srDFT)
  Bin Gao,                  UiT The Arctic U. of Norway,  Norway      (Gen1Int library)
  Andre S. P. Gomes,        CNRS/Universite de Lille,     France      (Frozen density embedding)
  Christof Haettig,         Ruhr-University Bochum,       Germany     (CC module)
  Kasper Hald,              Aarhus University,            Denmark     (CC module)
  Asger Halkier,            Aarhus University,            Denmark     (CC module)
  Frederik Beyer Hansen,    University of Copenhagen,     Denmark     (Parallel AO-SOPPA)
  Erik D. Hedegaard,        Univ. of Southern Denmark,    Denmark     (Polarizable embedding, QM/MM, and MC-srDFT)
  Hanne Heiberg,            University of Oslo,           Norway      (Geometry analysis, selected one-electron integrals)
  Trygve Helgaker,          University of Oslo,           Norway      (DALTON; ABACUS, ERI, DFT modules, London, and much more)
  Alf Christian Hennum,     University of Oslo,           Norway      (Parity violation)
  Hinne Hettema,            University of Auckland,       New Zealand (Quadratic response in RESPONS; SIRIUS supersymmetry)
  Eirik Hjertenaes,         NTNU,                         Norway      (Cholesky decomposition)
  Pi A. B. Haase,           University of Copenhagen,     Denmark     (Triplet AO-SOPPA)
  Maria Francesca Iozzi,    University of Oslo,           Norway      (RPA)
  Christoph Jacob           TU Braunschweig               Germany     (Frozen density embedding)
  Brano Jansik              Technical Univ. of Ostrava    Czech Rep.  (DFT cubic response)
  Hans Joergen Aa. Jensen,  Univ. of Southern Denmark,    Denmark     (DALTON; SIRIUS, RESPONS, ABACUS, MC-srDFT, and much more)
  Dan Jonsson,              UiT The Arctic U. of Norway,  Norway      (Cubic response in RESPONS module)
  Poul Joergensen,          Aarhus University,            Denmark     (RESPONS, ABACUS, and CC modules)
  Maciej Kaminski,          University of Warsaw,         Poland      (CPPh in RESPONS)
  Joanna Kauczor,           Linkoeping University,        Sweden      (Complex polarization propagator (CPP) module)
  Sheela Kirpekar,          Univ. of Southern Denmark,    Denmark     (Mass-velocity & Darwin integrals)
  Erik Kjellgren,           Univ. of Southern Denmark,    Denmark     (MC-srDFT)
  Wim Klopper,              KIT Karlsruhe,                Germany     (R12 code in CC, SIRIUS, and ABACUS modules)
  Stefan Knecht,            ETH Zurich,                   Switzerland (Parallel CI and MCSCF, MC-srDFT)
  Rika Kobayashi,           Australian National Univ.,    Australia   (DIIS in CC, London in MCSCF)
  Henrik Koch,              NTNU,                         Norway      (CC module, Cholesky decomposition)
  Jacob Kongsted,           Univ. of Southern Denmark,    Denmark     (Polarizable embedding, polarizable density embedding, QM/MM)
  Andrea Ligabue,           University of Modena,         Italy       (CTOCD, AOSOPPA)
  Nanna H. List             Univ. of Southern Denmark,    Denmark     (Polarizable embedding)
  Ola B. Lutnaes,           University of Oslo,           Norway      (DFT Hessian)
  Juan I. Melo,             University of Buenos Aires,   Argentina   (LRESC, Relativistic Effects on NMR Shieldings)
  Kurt V. Mikkelsen,        University of Copenhagen,     Denmark     (MC-SCRF and QM/MM)
  Rolf H. Myhre,            NTNU,                         Norway      (Subsystems and CC3)
  Christian Neiss,          Univ. Erlangen-Nuernberg,     Germany     (CCSD(R12))
  Christian B. Nielsen,     University of Copenhagen,     Denmark     (QM/MM)
  Patrick Norman,           KTH Stockholm,                Sweden      (Cubic response and complex frequency response in RESPONS)
  Jeppe Olsen,              Aarhus University,            Denmark     (SIRIUS CI/density modules)
  Jogvan Magnus H. Olsen,   Aarhus University,            Denmark     (Polarizable embedding and polarizable density embedding)
  Anders Osted,             Copenhagen University,        Denmark     (QM/MM)
  Martin J. Packer,         University of Sheffield,      UK          (SOPPA)
  Filip Pawlowski,          Kazimierz Wielki University,  Poland      (CC3)
  Morten N. Pedersen,       Univ. of Southern Denmark,    Denmark     (Polarizable embedding)
  Thomas B. Pedersen,       University of Oslo,           Norway      (Cholesky decomposition)
  Patricio F. Provasi,      University of Northeastern,   Argentina   (Analysis of coupling constants in localized orbitals)
  Peter Reinholdt,          Univ. of Southern Denmark,    Denmark     (Polarizable embedding and polarizable density embedding)
  Zilvinas Rinkevicius,     KTH Stockholm,                Sweden      (open-shell DFT, ESR)
  Elias Rudberg,            KTH Stockholm,                Sweden      (DFT grid and basis info)
  Torgeir A. Ruden,         University of Oslo,           Norway      (Numerical derivatives in ABACUS)
  Kenneth Ruud,             UiT The Arctic U. of Norway,  Norway      (DALTON; ABACUS magnetic properties and much more)
  Pawel Salek,              KTH Stockholm,                Sweden      (DALTON; DFT code)
  Claire C. M. Samson       University of Karlsruhe       Germany     (Boys localization, r12 integrals in ERI)
  Alfredo Sanchez de Meras, University of Valencia,       Spain       (CC module, Cholesky decomposition)
  Trond Saue,               Paul Sabatier University,     France      (direct Fock matrix construction)
  Stephan P. A. Sauer,      University of Copenhagen,     Denmark     (SOPPA(CCSD), SOPPA prop., AOSOPPA, vibrational g-factors)
  Bernd Schimmelpfennig,    Forschungszentrum Karlsruhe,  Germany     (AMFI module)
  Anna K. Schnack-Petersen, University of Copenhagen,     Denmark     (RPA(D) and HRPA(D) properties in AOSOPPA)
  Kristian Sneskov,         Aarhus University,            Denmark     (Polarizable embedding, QM/MM)
  Arnfinn H. Steindal,      UiT The Arctic U. of Norway,  Norway      (parallel QM/MM, polarizable embedding)
  Casper Steinmann,         Aalborg University,           Denmark     (QFIT, polarizable embedding)
  K. O. Sylvester-Hvid,     University of Copenhagen,     Denmark     (MC-SCRF)
  Peter R. Taylor,          VLSCI/Univ. of Melbourne,     Australia   (Symmetry handling ABACUS, integral transformation)
  Andrew M. Teale,          University of Nottingham,     England     (DFT-AC, DFT-D)
  David P. Tew,             University of Bristol,        England     (CCSD(R12))
  Julien Toulouse,          Sorbonne Univ.,               France      (MC-srDFT)
  Olav Vahtras,             KTH Stockholm,                Sweden      (Triplet response, spin-orbit, ESR, TDDFT, open-shell DFT)
  Lucas Visscher,           Vrije Universiteit Amsterdam, Netherlands (Frozen density embedding)
  David J. Wilson,          La Trobe University,          Australia   (DFT Hessian and DFT magnetizabilities)
  Hans Agren,               KTH Stockholm,                Sweden      (SIRIUS module, RESPONS, MC-SCRF solvation)
 --------------------------------------------------------------------------------

     Date and time (Linux)  : Thu Sep 14 01:13:12 2023
     Host name              : sn-mem                                  

 * Work memory size             :    64000000 =  488.28 megabytes.

 * Directories for basis set searches:
   1) /gpfs/projects/rjh/adrian/august_no_symmetry/dalton/hf/NOCl/dipole
   2) /gpfs/projects/rjh/adrian/dalton/build/basis


Compilation information
-----------------------

 Who compiled             | ahurtado
 Host                     | sn-mem
 System                   | Linux-3.10.0-1160.24.1.el7.x86_64
 CMake generator          | Unix Makefiles
 Processor                | x86_64
 64-bit integers          | OFF
 MPI                      | ON
 Fortran compiler         | /gpfs/software/intel/oneAPI/2021_4/mpi/2021.4.0/bi
                          | n/mpif90
 Fortran compiler version | GNU Fortran (GCC) 11.2.0
 C compiler               | /gpfs/software/intel/oneAPI/2021_4/mpi/2021.4.0/bi
                          | n/mpicc
 C compiler version       | gcc (GCC) 11.2.0
 C++ compiler             | /gpfs/software/intel/oneAPI/2021_4/mpi/2021.4.0/bi
                          | n/mpicxx
 C++ compiler version     | unknown
 BLAS                     | /gpfs/software/intel/oneAPI/2021_4/mkl/2021.4.0/li
                          | b/intel64/libmkl_gf_lp64.so;/gpfs/software/intel/o
                          | neAPI/2021_4/mkl/2021.4.0/lib/intel64/libmkl_seque
                          | ntial.so;/gpfs/software/intel/oneAPI/2021_4/mkl/20
                          | 21.4.0/lib/intel64/libmkl_core.so;/usr/lib64/libpt
                          | hread.so;/usr/lib64/libm.so
 LAPACK                   | /gpfs/software/intel/oneAPI/2021_4/mkl/2021.4.0/li
                          | b/intel64/libmkl_lapack95_lp64.a;/gpfs/software/in
                          | tel/oneAPI/2021_4/mkl/2021.4.0/lib/intel64/libmkl_
                          | gf_lp64.so
 Static linking           | OFF
 Last Git revision        | 66052b3af5ea7225e31178bf9a8b031913c72190
 Git branch               | (HEAD detached at Dalton2020.0)
 Configuration time       | 2023-01-11 13:33:37.731835

 * MPI parallel run using 5 processes.


   Content of the .dal input file
 ----------------------------------

**DALTON INPUT
.RUN RESPONSE
.DIRECT
**WAVE FUNCTIONS
.HF
**PROPERTIES
**RESPONSE
*QUADRA
.DIPLEN
.FREQUENCIES
5
0.0 0.0063445625 0.012689125 0.0190336875 0.02537825
**END OF DALTON INPUT


   Content of the .mol file
 ----------------------------

BASIS
d-aug-cc-pCVTZ
blah
blah
Atomtype=3 Angstrom Charge=0 Nosymmmetry
Charge=17 Atoms=1
Cl_a -0.531200001141 -0.929799999232 0.000000000000
Charge=7 Atoms=1
N_a 0.000000000000 0.972399997674 0.000000000000
Charge=8 Atoms=1
O_a 1.128700001162 1.124999999397 0.000000000000


       *******************************************************************
       *********** Output from DALTON general input processing ***********
       *******************************************************************

 --------------------------------------------------------------------------------
   Overall default print level:    0
   Print level for DALTON.STAT:    1

    Parallel calculation using MPI
    AO-direct calculation (in sections where implemented)
    HERMIT 1- and 2-electron integral sections will be executed
    "Old" integral transformation used (limited to max 255 basis functions)
    Wave function sections will be executed (SIRIUS module)
    Dynamic molecular response properties section will be executed (RESPONSE module)
 --------------------------------------------------------------------------------


   ****************************************************************************
   *************** Output of molecule and basis set information ***************
   ****************************************************************************


    The two title cards from your ".mol" input:
    ------------------------------------------------------------------------
 1: blah                                                                    
 2: blah                                                                    
    ------------------------------------------------------------------------

  Coordinates are entered in Angstrom and converted to atomic units.
          - Conversion factor : 1 bohr = 0.52917721 A

  Atomic type no.    1
  --------------------
  Nuclear charge:  17.00000
  Number of symmetry independent centers:    1
  Number of basis sets to read;    2
  Basis set file used for this atomic type with Z =  17 :
     "/gpfs/projects/rjh/adrian/dalton/build/basis/aug-cc-pCVTZ"

  Atomic type no.    2
  --------------------
  Nuclear charge:   7.00000
  Number of symmetry independent centers:    1
  Number of basis sets to read;    2
  Basis set file used for this atomic type with Z =   7 :
     "/gpfs/projects/rjh/adrian/dalton/build/basis/aug-cc-pCVTZ"

  Atomic type no.    3
  --------------------
  Nuclear charge:   8.00000
  Number of symmetry independent centers:    1
  Number of basis sets to read;    2
  Basis set file used for this atomic type with Z =   8 :
     "/gpfs/projects/rjh/adrian/dalton/build/basis/aug-cc-pCVTZ"


                         SYMGRP: Point group information
                         -------------------------------

@    Point group: C1 


                                 Isotopic Masses
                                 ---------------

                           Cl_a       34.968853
                           N_a        14.003074
                           O_a        15.994915

                       Total mass:    64.966842 amu
                       Natural abundance:  75.308 %

 Center-of-mass coordinates (a.u.):   -0.015184   -0.026271    0.000000
 Center-of-mass coordinates (Angs):   -0.008035   -0.013902    0.000000


  Atoms and basis sets
  --------------------

  Number of atom types :    3
  Total number of atoms:    3

  Basis set used is "d-aug-cc-pCVTZ" from the basis set library.

  label    atoms   charge   prim   cont     basis
  ----------------------------------------------------------------------
  Cl          1   17.0000   116    91      [19s13p6d4f|9s8p6d4f]                              
  N_          1    7.0000    87    75      [14s9p5d3f|8s7p5d3f]                               
  O_          1    8.0000    87    75      [14s9p5d3f|8s7p5d3f]                               
  ----------------------------------------------------------------------
  total:      3   32.0000   290   241
  ----------------------------------------------------------------------
  Spherical harmonic basis used.

  Threshold for neglecting AO integrals:  1.00D-12


  Cartesian Coordinates (a.u.)
  ----------------------------

  Total number of coordinates:    9
  Cl_a    :     1  x  -1.0038225198    2  y  -1.7570673496    3  z   0.0000000000
  N_a     :     4  x   0.0000000000    5  y   1.8375696795    6  z   0.0000000000
  O_a     :     7  x   2.1329338795    8  y   2.1259418895    9  z   0.0000000000


   Interatomic separations (in Angstrom):
   --------------------------------------

            Cl_a        N_a         O_a   
            ------      ------      ------
 Cl_a  :    0.000000
 N_a   :    1.974978    0.000000
 O_a   :    2.641490    1.138969    0.000000


  Max    interatomic separation is    2.6415 Angstrom (    4.9917 Bohr)
  between atoms    3 and    1, "O_a   " and "Cl_a  ".

  Min YX interatomic separation is    1.1390 Angstrom (    2.1523 Bohr)


  Bond distances (Angstrom):
  --------------------------

                  atom 1     atom 2       distance
                  ------     ------       --------
  bond distance:  N_a        Cl_a         1.974978
  bond distance:  O_a        N_a          1.138969


  Bond angles (degrees):
  ----------------------

                  atom 1     atom 2     atom 3         angle
                  ------     ------     ------         -----
  bond angle:     Cl_a       N_a        O_a          113.302




 Principal moments of inertia (u*A**2) and principal axes
 --------------------------------------------------------

   IA       5.840433          0.544616    0.838686    0.000000
   IB      88.102929          0.838686   -0.544616    0.000000
   IC      93.943362          0.000000    0.000000    1.000000


 Rotational constants
 --------------------

@    The molecule is planar.

               A                   B                   C

          86531.0810           5736.2339           5379.6138 MHz
            2.886366            0.191340            0.179445 cm-1


@  Nuclear repulsion energy :   85.148419784453 Hartree


                     .---------------------------------------.
                     | Starting in Integral Section (HERMIT) |
                     `---------------------------------------'



 ***************************************************************************************
 ****************** Output from **INTEGRALS input processing (HERMIT) ******************
 ***************************************************************************************


 - Using defaults, no **INTEGRALS input found

 Default print level:        1

 Calculation of one-electron Hamiltonian integrals.

 Center of mass  (bohr):     -0.015183530523     -0.026271029737      0.000000000000
 Operator center (bohr):      0.000000000000      0.000000000000      0.000000000000
 Gauge origin    (bohr):      0.000000000000      0.000000000000      0.000000000000
 Dipole origin   (bohr):      0.000000000000      0.000000000000      0.000000000000


     ************************************************************************
     ************************** Output from HERINT **************************
     ************************************************************************



                      Nuclear contribution to dipole moments
                      --------------------------------------

                 au               Debye          C m (/(10**-30)

      x     -0.00151180        -0.00384261        -0.01281757
      y      0.00037793         0.00096060         0.00320422
      z      0.00000000         0.00000000         0.00000000


  Time used in ONEDRV     is       0.11 seconds
  Time used in GABGEN     is       0.92 seconds
  Total CPU  time used in HERMIT:   1.40 seconds
  Total wall time used in HERMIT:   1.42 seconds


                        .----------------------------------.
                        | End of Integral Section (HERMIT) |
                        `----------------------------------'



                   .--------------------------------------------.
                   | Starting in Wave Function Section (SIRIUS) |
                   `--------------------------------------------'


 *** Output from Huckel module :

     Using EWMO model:          T
     Using EHT  model:          F
     Number of Huckel orbitals each symmetry:   24

 EWMO - Energy Weighted Maximum Overlap - is a Huckel type method,
        which normally is better than Extended Huckel Theory.
 Reference: Linderberg and Ohrn, Propagators in Quantum Chemistry (Wiley, 1973)

 Huckel EWMO eigenvalues for symmetry :  1
         -104.883930     -20.685569     -15.673202     -10.608489      -8.072407
           -8.072214      -8.072213      -1.708026      -1.175229      -0.898477
           -0.756044      -0.739435      -0.598849      -0.506247      -0.484719
           -0.442076      -0.370251      -0.309233      -0.187242      -0.055540
           -0.055527      -0.054317      -0.054072      -0.050572

 **********************************************************************
 *SIRIUS* a direct, restricted step, second order MCSCF program       *
 **********************************************************************

 
     Date and time (Linux)  : Thu Sep 14 01:13:14 2023
     Host name              : sn-mem                                  

 Title lines from ".mol" input file:
     blah                                                                    
     blah                                                                    

 Print level on unit LUPRI =   2 is   0
 Print level on unit LUW4  =   2 is   5

@    Restricted, closed shell Hartree-Fock calculation.

@    Time-dependent Hartree-Fock calculation (random phase approximation).
 Fock matrices are calculated directly and in parallel without use of integrals on disk.

 Initial molecular orbitals are obtained according to
 ".MOSTART EWMO  " input option

     Wave function specification
     ============================
@    Wave function type        --- HF ---
@    Number of closed shell electrons          32
@    Number of electrons in active shells       0
@    Total charge of the molecule               0

@    Spin multiplicity and 2 M_S                1         0
@    Total number of symmetries                 1 (point group: C1 )
@    Reference state symmetry                   1 (irrep name : A  )

     Orbital specifications
     ======================
@    Abelian symmetry species          All |    1
@                                          |  A  
                                       --- |  ---
@    Occupied SCF orbitals              16 |   16
@    Secondary orbitals                225 |  225
@    Total number of orbitals          241 |  241
@    Number of basis functions         241 |  241

     Optimization information
     ========================
@    Number of configurations                 1
@    Number of orbital rotations           3600
     ------------------------------------------
@    Total number of variables             3601

     Maximum number of Fock   iterations      0
     Maximum number of DIIS   iterations     60
     Maximum number of QC-SCF iterations     60
     Threshold for SCF convergence     1.00D-05


 ***********************************************
 ***** DIIS acceleration of SCF iterations *****
 ***********************************************

 C1-DIIS algorithm; max error vectors =    8

 Iter      Total energy        Error norm    Delta(E)  DIIS dim.
 -----------------------------------------------------------------------------
   1  Screening settings (-IFTHRS, JTDIIS, DIFDEN, times)   -8    1    T  7.47D+00  7.49D+00
@  1    -588.363820406        3.05472D+00   -5.88D+02    1
      Virial theorem: -V/T =      2.000464
@    MULPOP   Cl_a   -0.17; N_a     0.52; O_a    -0.35; 
   1  Level shift: doubly occupied orbital energies shifted by -2.00D-01
 -----------------------------------------------------------------------------
   2  Screening settings (-IFTHRS, JTDIIS, DIFDEN, times)   -8    2    T  7.57D+00  7.66D+00
@  2    -588.703707624        1.15040D+00   -3.40D-01    2
      Virial theorem: -V/T =      2.000226
@    MULPOP   Cl_a    0.02; N_a     0.10; O_a    -0.12; 
   2  Level shift: doubly occupied orbital energies shifted by -1.00D-01
 -----------------------------------------------------------------------------
   3  Screening settings (-IFTHRS, JTDIIS, DIFDEN, times)   -8    3    T  7.74D+00  7.78D+00
@  3    -588.760265227        4.12369D-01   -5.66D-02    3
      Virial theorem: -V/T =      2.000159
@    MULPOP   Cl_a   -0.12; N_a     0.53; O_a    -0.40; 
   3  Level shift: doubly occupied orbital energies shifted by -5.00D-02
 -----------------------------------------------------------------------------
   4  Screening settings (-IFTHRS, JTDIIS, DIFDEN, times)  -12    4    F  7.93D+00  7.99D+00
@  4    -588.769350734        1.11643D-01   -9.09D-03    4
      Virial theorem: -V/T =      2.000755
@    MULPOP   Cl_a   -0.14; N_a     0.45; O_a    -0.31; 
   4  Level shift: doubly occupied orbital energies shifted by -2.50D-02
 -----------------------------------------------------------------------------
   5  Screening settings (-IFTHRS, JTDIIS, DIFDEN, times)  -12    5    T  7.80D+00  7.81D+00
@  5    -588.770577161        4.06545D-02   -1.23D-03    5
      Virial theorem: -V/T =      2.000547
@    MULPOP   Cl_a   -0.14; N_a     0.47; O_a    -0.33; 
   5  Level shift: doubly occupied orbital energies shifted by -1.25D-02
 -----------------------------------------------------------------------------
   6  Screening settings (-IFTHRS, JTDIIS, DIFDEN, times)  -12    6    T  7.52D+00  7.56D+00
@  6    -588.770805647        1.73446D-02   -2.28D-04    6
      Virial theorem: -V/T =      2.000544
@    MULPOP   Cl_a   -0.15; N_a     0.48; O_a    -0.33; 
 -----------------------------------------------------------------------------
   7  Screening settings (-IFTHRS, JTDIIS, DIFDEN, times)  -12    7    T  7.75D+00  7.79D+00
@  7    -588.770868895        6.71390D-03   -6.32D-05    7
      Virial theorem: -V/T =      2.000571
@    MULPOP   Cl_a   -0.15; N_a     0.48; O_a    -0.33; 
 -----------------------------------------------------------------------------
   8  Screening settings (-IFTHRS, JTDIIS, DIFDEN, times)  -12    8    T  7.85D+00  7.87D+00
@  8    -588.770880856        2.84071D-03   -1.20D-05    8
      Virial theorem: -V/T =      2.000557
@    MULPOP   Cl_a   -0.15; N_a     0.47; O_a    -0.33; 
 -----------------------------------------------------------------------------
   9  Screening settings (-IFTHRS, JTDIIS, DIFDEN, times)  -12    9    T  7.85D+00  7.89D+00
@  9    -588.770883092        1.09434D-03   -2.24D-06    8
      Virial theorem: -V/T =      2.000557
@    MULPOP   Cl_a   -0.15; N_a     0.47; O_a    -0.33; 
 -----------------------------------------------------------------------------
  10  Screening settings (-IFTHRS, JTDIIS, DIFDEN, times)  -12   10    T  7.75D+00  7.76D+00
@ 10    -588.770883446        3.55006D-04   -3.54D-07    8
      Virial theorem: -V/T =      2.000557
@    MULPOP   Cl_a   -0.15; N_a     0.47; O_a    -0.33; 
 -----------------------------------------------------------------------------
  11  Screening settings (-IFTHRS, JTDIIS, DIFDEN, times)  -12   11    T  7.71D+00  7.74D+00
@ 11    -588.770883485        1.56056D-04   -3.82D-08    8
      Virial theorem: -V/T =      2.000557
@    MULPOP   Cl_a   -0.15; N_a     0.47; O_a    -0.33; 
 -----------------------------------------------------------------------------
  12  Screening settings (-IFTHRS, JTDIIS, DIFDEN, times)  -12   12    T  8.01D+00  8.04D+00
@ 12    -588.770883491        5.17186D-05   -6.31D-09    8
      Virial theorem: -V/T =      2.000557
@    MULPOP   Cl_a   -0.15; N_a     0.47; O_a    -0.33; 
 -----------------------------------------------------------------------------
  13  Screening settings (-IFTHRS, JTDIIS, DIFDEN, times)  -12   13    T  7.53D+00  7.54D+00
@ 13    -588.770883491        2.66229D-05   -3.10D-10    8
      Virial theorem: -V/T =      2.000557
@    MULPOP   Cl_a   -0.15; N_a     0.47; O_a    -0.33; 
 -----------------------------------------------------------------------------
  14  Screening settings (-IFTHRS, JTDIIS, DIFDEN, times)  -12   14    T  7.57D+00  7.59D+00
@ 14    -588.770883491        7.90304D-06   -7.66D-11    8

@ *** DIIS converged in  14 iterations !
@     Converged SCF energy, gradient:   -588.770883491202    7.90D-06
    - total time used in SIRFCK :              0.00 seconds


 *** SCF orbital energy analysis ***

 Only the 20 lowest virtual orbital energies printed in each symmetry.

 Number of electrons :   32
 Orbital occupations :   16

 Sym       Hartree-Fock orbital energies

1 A    -104.83572608   -20.75691372   -15.85410132   -10.55934690    -8.02539655
         -8.02404223    -8.02397883    -1.68285036    -1.10540247    -0.96906792
         -0.77214413    -0.76389804    -0.72588299    -0.45896911    -0.45862053
         -0.43131009     0.01620602     0.02404267     0.02724939     0.02910449
          0.03115506     0.03988907     0.04323941     0.04427052     0.05172487
          0.05501085     0.05940381     0.06927172     0.07943348     0.08484216
          0.12615637     0.13319658     0.14213462     0.15875956     0.16482050
          0.16650242

    E(LUMO) :     0.01620602 au (symmetry 1)
  - E(HOMO) :    -0.43131009 au (symmetry 1)
  ------------------------------------------
    gap     :     0.44751611 au

 --- Writing SIRIFC interface file

 CPU and wall time for SCF :     109.848     110.349


                       .-----------------------------------.
                       | --- Final results from SIRIUS --- |
                       `-----------------------------------'


@    Spin multiplicity:           1
@    Spatial symmetry:            1 ( irrep  A   in C1  )
@    Total charge of molecule:    0

@    Final HF energy:            -588.770883491202                 
@    Nuclear repulsion:            85.148419784453
@    Electronic energy:          -673.919303275655

@    Final gradient norm:           0.000007903043

 
     Date and time (Linux)  : Thu Sep 14 01:15:05 2023
     Host name              : sn-mem                                  

File label for MO orbitals:  14Sep23   FOCKDIIS

 (Only coefficients > 0.0100 are printed.)

 Molecular orbitals for symmetry species 1  (A  )
 ------------------------------------------------

    Orbital         7        8        9       10       11       12       13
   3 Cl_a:1s    -0.0019  -0.0365  -0.7920   0.4653  -0.1455   0.2647   0.0000
   5 Cl_a:1s     0.0039   0.0047  -0.0017   0.0284  -0.0412   0.0589   0.0000
   8 Cl_a:1s     0.0028   0.0186   0.0320  -0.0138  -0.0254   0.0298   0.0000
   9 Cl_a:1s    -0.0000  -0.0006   0.0189  -0.0189  -0.0163   0.0067   0.0000
  10 Cl_a:2px    0.9676  -0.0007   0.0012   0.0002  -0.0006   0.0024   0.0000
  11 Cl_a:2py   -0.2510  -0.0003   0.0012   0.0009  -0.0006   0.0034  -0.0000
  13 Cl_a:2px   -0.0046  -0.0133  -0.0201  -0.0138   0.1007  -0.0255   0.0000
  14 Cl_a:2py    0.0015  -0.0236  -0.0888  -0.0848   0.1104  -0.2452  -0.0000
  15 Cl_a:2pz   -0.0000  -0.0000  -0.0000  -0.0000   0.0000   0.0000   0.0992
  19 Cl_a:2px    0.0082   0.0126  -0.0118  -0.0009  -0.0185  -0.0153   0.0000
  20 Cl_a:2py    0.0027   0.0119   0.0196   0.0278  -0.0197   0.0587   0.0000
  21 Cl_a:2pz    0.0000  -0.0000   0.0000   0.0000  -0.0000  -0.0000  -0.0366
  29 Cl_a:2py    0.0005   0.0029   0.0188  -0.0102  -0.0055   0.0091   0.0000
  48 Cl_a:3d2+   0.0002   0.0016   0.0062   0.0051  -0.0029   0.0123  -0.0000
  49 Cl_a:3d2-  -0.0005  -0.0042  -0.0062  -0.0031   0.0109  -0.0048  -0.0000
  51 Cl_a:3d0   -0.0001   0.0023   0.0067   0.0034  -0.0067   0.0101  -0.0000
  53 Cl_a:3d2+  -0.0008   0.0028   0.0111   0.0066  -0.0078   0.0173  -0.0000
  54 Cl_a:3d2-   0.0039   0.0089  -0.0091  -0.0002  -0.0028  -0.0154  -0.0000
  55 Cl_a:3d1-   0.0000  -0.0000   0.0000  -0.0000   0.0000   0.0000  -0.0195
  58 Cl_a:3d2+   0.0006  -0.0011  -0.0063  -0.0066   0.0009  -0.0155  -0.0000
  92 N_a :1s    -0.0005   0.0279  -0.0025  -0.0016  -0.0044  -0.0160  -0.0000
  93 N_a :1s    -0.0021  -0.4548  -0.3638  -0.6143  -0.1333  -0.3812  -0.0000
  94 N_a :1s     0.0006  -0.0207   0.0028  -0.0065   0.0003   0.0118   0.0000
  95 N_a :1s    -0.0031   0.1299  -0.0123  -0.0181  -0.0807  -0.1348   0.0000
  98 N_a :1s     0.0041   0.0154  -0.0661   0.0527   0.0294  -0.1185   0.0000
  99 N_a :1s     0.0028  -0.0037  -0.0106   0.0247   0.0101  -0.0239   0.0000
 100 N_a :2px    0.0001  -0.3005   0.1488   0.0345   0.2835   0.6377   0.0000
 101 N_a :2py    0.0001  -0.0306   0.1367  -0.0821  -0.4479   0.1524  -0.0000
 102 N_a :2pz   -0.0000   0.0000   0.0000  -0.0000  -0.0000  -0.0000   0.5571
 103 N_a :2px   -0.0007   0.0435  -0.0128  -0.0028  -0.0205  -0.0491  -0.0000
 106 N_a :2px    0.0015   0.1196  -0.0451  -0.0233  -0.0613  -0.0900   0.0000
 107 N_a :2py    0.0090   0.0284  -0.0455   0.0124   0.1120  -0.0501   0.0000
 108 N_a :2pz   -0.0000   0.0000  -0.0000   0.0000  -0.0000  -0.0000  -0.0839
 115 N_a :2px   -0.0046   0.0421   0.0086   0.0043   0.0187  -0.0125   0.0000
 116 N_a :2py   -0.0003   0.0152   0.0308  -0.0222  -0.0150   0.0016   0.0000
 126 N_a :3d2-   0.0000  -0.0028   0.0013  -0.0015  -0.0159   0.0053  -0.0000
 129 N_a :3d1+   0.0000  -0.0000  -0.0000  -0.0000   0.0000   0.0000   0.0199
 130 N_a :3d2+   0.0000  -0.0150   0.0049  -0.0033   0.0063   0.0143  -0.0000
 131 N_a :3d2-   0.0001  -0.0015  -0.0052  -0.0018  -0.0264   0.0017   0.0000
 134 N_a :3d1+  -0.0000   0.0000   0.0000   0.0000  -0.0000  -0.0000   0.0361
 135 N_a :3d2+  -0.0003  -0.0156   0.0152  -0.0042   0.0029   0.0195  -0.0000
 136 N_a :3d2-   0.0036   0.0089  -0.0259  -0.0037   0.0514  -0.0398  -0.0000
 137 N_a :3d1-   0.0000  -0.0000   0.0000  -0.0000  -0.0000   0.0000  -0.0231
 139 N_a :3d1+   0.0000   0.0000  -0.0000   0.0000  -0.0000  -0.0000  -0.0327
 140 N_a :3d2+   0.0032   0.0098  -0.0050  -0.0215  -0.0237   0.0135   0.0000
 145 N_a :3d2+   0.0002   0.0112   0.0039  -0.0043  -0.0014  -0.0016   0.0000
 160 N_a :4f3-  -0.0007  -0.0028  -0.0033   0.0011   0.0246  -0.0023  -0.0000
 165 N_a :4f2+   0.0000  -0.0000   0.0000  -0.0000   0.0000   0.0000  -0.0137
 167 O_a :1s     0.0001   0.0138   0.0015   0.0058   0.0002  -0.0024  -0.0000
 168 O_a :1s     0.0006  -0.7021   0.3066   0.5376  -0.0458  -0.1468   0.0000
 170 O_a :1s    -0.0032   0.0174   0.0579   0.1386  -0.0056  -0.0671  -0.0000
 173 O_a :1s    -0.0058  -0.0372   0.0264  -0.0098  -0.0028   0.0745  -0.0000
 174 O_a :1s    -0.0034   0.0100  -0.0018  -0.0153   0.0096   0.0320  -0.0000
 175 O_a :2px    0.0000   0.2465   0.0873   0.4502  -0.0585  -0.5870  -0.0000
 176 O_a :2py   -0.0000   0.0346   0.0711   0.0085  -0.7356   0.1043  -0.0000
 177 O_a :2pz   -0.0000   0.0000  -0.0000  -0.0000  -0.0000  -0.0000   0.6858
 178 O_a :2px   -0.0001   0.0035  -0.0071  -0.0159  -0.0015   0.0057   0.0000
 181 O_a :2px   -0.0006  -0.0286  -0.0247  -0.0674  -0.0019   0.0230   0.0000
 182 O_a :2py   -0.0035  -0.0104   0.0152  -0.0053  -0.0423   0.0361  -0.0000
 183 O_a :2pz    0.0000  -0.0000   0.0000  -0.0000   0.0000   0.0000   0.0344
 190 O_a :2px    0.0014  -0.0356  -0.0126   0.0123  -0.0248  -0.0264  -0.0000
 191 O_a :2py    0.0016  -0.0110  -0.0151   0.0081  -0.0181   0.0017  -0.0000
 192 O_a :2pz   -0.0000  -0.0000  -0.0000  -0.0000  -0.0000  -0.0000   0.0121
 201 O_a :3d2-   0.0000  -0.0029  -0.0017  -0.0010   0.0111   0.0009  -0.0000
 204 O_a :3d1+   0.0000  -0.0000  -0.0000  -0.0000   0.0000   0.0000  -0.0127
 205 O_a :3d2+  -0.0000  -0.0093  -0.0004  -0.0073   0.0000   0.0100  -0.0000
 206 O_a :3d2-   0.0001  -0.0077  -0.0065  -0.0016   0.0317  -0.0012   0.0000
 208 O_a :3d0    0.0000   0.0153  -0.0003   0.0067  -0.0045  -0.0130   0.0000
 209 O_a :3d1+  -0.0000   0.0000   0.0000   0.0000  -0.0000  -0.0000  -0.0368
 210 O_a :3d2+   0.0002  -0.0264   0.0012  -0.0149  -0.0001   0.0247   0.0000
 211 O_a :3d2-   0.0025   0.0040  -0.0109  -0.0005   0.0302  -0.0131   0.0000
 214 O_a :3d1+  -0.0000   0.0000  -0.0000   0.0000  -0.0000  -0.0000  -0.0320
 215 O_a :3d2+   0.0009  -0.0020  -0.0003  -0.0021  -0.0002   0.0108   0.0000

    Orbital        14       15       16       17       18       19       20
   2 Cl_a:1s     0.0000   0.0036   0.0011   0.0013   0.0153  -0.0059  -0.0000
   3 Cl_a:1s     0.0000   0.0203  -0.0175   0.0129   0.1012   0.0014  -0.0000
   4 Cl_a:1s    -0.0000  -0.0011  -0.0076   0.0008  -0.0107   0.0035  -0.0000
   5 Cl_a:1s    -0.0000  -0.0164  -0.0369   0.0700  -0.0394   0.1230  -0.0000
   7 Cl_a:1s     0.0000   0.0019   0.0031  -0.0000   0.0101  -0.0039   0.0000
   8 Cl_a:1s    -0.0000  -0.0176   0.0145  -0.9011   1.2295   1.0757  -0.0000
   9 Cl_a:1s     0.0000  -0.0043   0.0208  -1.0150   7.0704   2.6912  -0.0000
  13 Cl_a:2px   -0.0000  -0.9492   0.0407   0.0156   0.0423  -0.0293  -0.0000
  14 Cl_a:2py    0.0000   0.1409   0.7317  -0.0358   0.0467  -0.0259  -0.0000
  15 Cl_a:2pz    0.9523  -0.0000  -0.0000   0.0000  -0.0000  -0.0000  -0.1059
  19 Cl_a:2px   -0.0000  -0.0480  -0.0275  -0.1223  -0.1030  -0.0290  -0.0000
  20 Cl_a:2py   -0.0000  -0.0140   0.0103  -0.1153   0.0097   0.1772  -0.0000
  21 Cl_a:2pz    0.0305   0.0000   0.0000  -0.0000   0.0000   0.0000  -0.0603
  28 Cl_a:2px    0.0000  -0.0651  -0.0051  -0.5776   0.6125  -0.4698   0.0000
  29 Cl_a:2py    0.0000  -0.0034   0.0489  -0.4418   1.4352   0.8117  -0.0000
  30 Cl_a:2pz    0.0350  -0.0000   0.0000   0.0000  -0.0000   0.0000  -0.6959
  31 Cl_a:2px    0.0000   0.0038   0.0008   0.5074   0.2105   0.7441   0.0000
  32 Cl_a:2py    0.0000  -0.0005  -0.0020   0.3015   1.2213   1.0552  -0.0000
  33 Cl_a:2pz    0.0018   0.0000   0.0000   0.0000  -0.0000   0.0000  -0.1994
  48 Cl_a:3d2+   0.0000   0.0010  -0.0104  -0.0046   0.0055  -0.0013   0.0000
  49 Cl_a:3d2-   0.0000  -0.0073   0.0140   0.0039   0.0017   0.0046   0.0000
  50 Cl_a:3d1-   0.0094   0.0000   0.0000   0.0000  -0.0000   0.0000   0.0123
  51 Cl_a:3d0    0.0000   0.0032  -0.0099  -0.0058   0.0005  -0.0127   0.0000
  53 Cl_a:3d2+   0.0000   0.0024  -0.0160  -0.0012  -0.0000  -0.0102   0.0000
  54 Cl_a:3d2-   0.0000  -0.0223  -0.0086  -0.0782  -0.0871  -0.0101   0.0000
  55 Cl_a:3d1-   0.0142   0.0000   0.0000   0.0000  -0.0000   0.0000  -0.0279
  56 Cl_a:3d0    0.0000   0.0065  -0.0014   0.0462   0.0327   0.0091   0.0000
  57 Cl_a:3d1+   0.0048   0.0000   0.0000   0.0000  -0.0000   0.0000  -0.0323
  58 Cl_a:3d2+   0.0000  -0.0005  -0.0172   0.0068   0.0146  -0.0580   0.0000
  59 Cl_a:3d2-   0.0000  -0.0183   0.0026  -0.1337   0.1963  -0.1210   0.0000
  60 Cl_a:3d1-   0.0075   0.0000   0.0000   0.0000  -0.0000   0.0000  -0.1957
  61 Cl_a:3d0    0.0000   0.0052  -0.0062   0.0047  -0.1138  -0.0896   0.0000
  62 Cl_a:3d1+   0.0019   0.0000   0.0000   0.0000  -0.0000   0.0000  -0.0252
  63 Cl_a:3d2+   0.0000  -0.0056  -0.0100  -0.0166  -0.2153  -0.1724   0.0000
  85 Cl_a:4f3-  -0.0000  -0.0046  -0.0072  -0.0136  -0.0168  -0.0245  -0.0000
  86 Cl_a:4f2-   0.0025  -0.0000  -0.0000  -0.0000   0.0000  -0.0000  -0.0209
  87 Cl_a:4f1-   0.0000   0.0014  -0.0014   0.0134  -0.0006  -0.0028   0.0000
  88 Cl_a:4f0   -0.0032   0.0000   0.0000   0.0000  -0.0000   0.0000   0.0230
  89 Cl_a:4f1+   0.0000   0.0029   0.0011   0.0112  -0.0029   0.0039   0.0000
  90 Cl_a:4f2+  -0.0039   0.0000   0.0000   0.0000  -0.0000   0.0000   0.0218
  91 Cl_a:4f3+   0.0000   0.0070   0.0018   0.0278   0.0025   0.0020   0.0000
  92 N_a :1s     0.0000   0.0006  -0.0099  -0.0035  -0.0025   0.0190  -0.0000
  93 N_a :1s     0.0000  -0.0032  -0.2616   0.0272  -0.0420   0.1156  -0.0000
  94 N_a :1s    -0.0000   0.0000  -0.0017   0.0075   0.0032  -0.0180  -0.0000
  95 N_a :1s    -0.0000   0.0001  -0.0908  -0.4083  -0.2297   0.3984  -0.0000
  98 N_a :1s    -0.0000  -0.0094  -0.1530  -2.2682  -4.2154   0.6542  -0.0000
  99 N_a :1s    -0.0000  -0.0204  -0.0326  -6.3441  -9.3747  -0.3265  -0.0000
 100 N_a :2px    0.0000   0.0301   0.2313  -0.0328   0.0062  -0.0176  -0.0000
 101 N_a :2py    0.0000   0.0117  -0.3425  -0.0335   0.0982  -0.0107  -0.0000
 102 N_a :2pz   -0.0051  -0.0000   0.0000  -0.0000   0.0000  -0.0000   0.2287
 103 N_a :2px    0.0000  -0.0022  -0.0141  -0.0302  -0.0112   0.0279   0.0000
 106 N_a :2px   -0.0000  -0.0176  -0.0155  -0.3998  -0.1370   0.1793  -0.0000
 107 N_a :2py   -0.0000  -0.0246  -0.0886  -0.2224  -0.0213   0.1527  -0.0000
 108 N_a :2pz    0.0167   0.0000  -0.0000   0.0000  -0.0000  -0.0000  -0.0679
 115 N_a :2px   -0.0000   0.0452   0.0005  -1.2064   0.2093   0.9962  -0.0000
 116 N_a :2py    0.0000   0.0162  -0.0626  -1.0194   2.0391   0.5478  -0.0000
 117 N_a :2pz    0.0126  -0.0000  -0.0000  -0.0000   0.0000  -0.0000  -0.0572
 118 N_a :2px   -0.0000  -0.0042  -0.0014  -1.0778  -0.1488   1.2419  -0.0000
 119 N_a :2py    0.0000  -0.0011   0.0072  -1.5700   2.4863  -1.1170   0.0000
 120 N_a :2pz   -0.0033  -0.0000  -0.0000   0.0000  -0.0000  -0.0000   2.1416
 131 N_a :3d2-  -0.0000   0.0011   0.0280  -0.0056  -0.0040   0.0103  -0.0000
 132 N_a :3d1-  -0.0155   0.0000   0.0000   0.0000  -0.0000   0.0000  -0.0003
 133 N_a :3d0    0.0000   0.0003  -0.0153   0.0085   0.0025  -0.0057   0.0000
 134 N_a :3d1+  -0.0126   0.0000  -0.0000  -0.0000   0.0000  -0.0000  -0.0200
 135 N_a :3d2+   0.0000   0.0159  -0.0222  -0.0178  -0.0067   0.0062  -0.0000
 136 N_a :3d2-   0.0000  -0.0020  -0.0201  -0.0975  -0.0780  -0.0606   0.0000
 137 N_a :3d1-  -0.0017   0.0000   0.0000   0.0000  -0.0000   0.0000  -0.0706
 138 N_a :3d0    0.0000   0.0018  -0.0100   0.0585   0.0049   0.0459   0.0000
 139 N_a :3d1+   0.0047   0.0000  -0.0000   0.0000  -0.0000  -0.0000  -0.0896
 140 N_a :3d2+  -0.0000  -0.0070  -0.0311  -0.1366  -0.0773   0.0417  -0.0000
 141 N_a :3d2-   0.0000  -0.0148  -0.0151  -0.3180   0.2566  -0.4731   0.0000
 142 N_a :3d1-   0.0086   0.0000   0.0000   0.0000  -0.0000   0.0000  -0.3085
 143 N_a :3d0    0.0000   0.0041  -0.0002   0.0547  -0.0233   0.0953  -0.0000
 144 N_a :3d1+   0.0093  -0.0000  -0.0000  -0.0000   0.0000  -0.0000  -0.1828
 145 N_a :3d2+  -0.0000   0.0032  -0.0071  -0.3183   0.2641   0.0171  -0.0000
 160 N_a :4f3-   0.0000   0.0074  -0.0013  -0.0025  -0.0087  -0.0253   0.0000
 161 N_a :4f2-  -0.0004   0.0000  -0.0000  -0.0000   0.0000  -0.0000  -0.0188
 163 N_a :4f0   -0.0002   0.0000   0.0000   0.0000  -0.0000   0.0000  -0.0105
 165 N_a :4f2+   0.0025   0.0000  -0.0000   0.0000  -0.0000   0.0000  -0.0220
 166 N_a :4f3+   0.0000  -0.0021  -0.0020  -0.0472  -0.0534  -0.0417   0.0000
 168 O_a :1s    -0.0000   0.0286   0.0266   0.0081   0.0089   0.0115   0.0000
 170 O_a :1s     0.0000   0.0139   0.0320   0.4773   0.1631  -0.1372   0.0000
 173 O_a :1s     0.0000   0.0220   0.0766   2.6904   1.0730  -1.2823   0.0000
 174 O_a :1s     0.0000   0.0276   0.0338   7.1518   3.7145  -3.5659   0.0000
 175 O_a :2px    0.0000  -0.0247  -0.1301   0.0301   0.0060  -0.0006  -0.0000
 176 O_a :2py    0.0000  -0.1726   0.4945   0.0375  -0.0661   0.0074  -0.0000
 177 O_a :2pz   -0.1689   0.0000  -0.0000   0.0000  -0.0000   0.0000  -0.2256
 178 O_a :2px   -0.0000   0.0014  -0.0020  -0.0148  -0.0053   0.0023  -0.0000
 181 O_a :2px   -0.0000   0.0021  -0.0184  -0.2645  -0.0877   0.2006  -0.0000
 182 O_a :2py    0.0000  -0.0039   0.0673   0.0250   0.0114   0.0207   0.0000
 183 O_a :2pz   -0.0179  -0.0000   0.0000  -0.0000  -0.0000   0.0000   0.0478
 190 O_a :2px    0.0000  -0.0176  -0.0225  -0.5582  -1.0543   0.7134   0.0000
 191 O_a :2py   -0.0000  -0.0324   0.0726   0.2174  -0.9515   0.2394  -0.0000
 192 O_a :2pz   -0.0392   0.0000   0.0000   0.0000  -0.0000   0.0000   0.4929
 193 O_a :2px   -0.0000  -0.0007  -0.0031  -1.2506  -0.4717   0.1374   0.0000
 194 O_a :2py   -0.0000   0.0014  -0.0039   0.5790  -0.6765   1.3462  -0.0000
 195 O_a :2pz   -0.0002  -0.0000   0.0000  -0.0000   0.0000   0.0000  -0.8813
 210 O_a :3d2+  -0.0000   0.0021   0.0011   0.0108   0.0038  -0.0075  -0.0000
 211 O_a :3d2-  -0.0000  -0.0100  -0.0095  -0.0140  -0.0047   0.0087  -0.0000
 213 O_a :3d0    0.0000   0.0016   0.0020  -0.0200   0.0087   0.0331   0.0000
 214 O_a :3d1+   0.0051  -0.0000  -0.0000  -0.0000   0.0000  -0.0000  -0.0580
 215 O_a :3d2+  -0.0000  -0.0022   0.0038   0.0452   0.0225  -0.0553  -0.0000
 216 O_a :3d2-  -0.0000   0.0050  -0.0040  -0.0224   0.2488   0.0141  -0.0000
 217 O_a :3d1-   0.0007  -0.0000  -0.0000  -0.0000   0.0000  -0.0000   0.0465
 218 O_a :3d0    0.0000  -0.0068   0.0013   0.0010  -0.1214   0.0404   0.0000
 219 O_a :3d1+   0.0076  -0.0000  -0.0000  -0.0000   0.0000  -0.0000  -0.1748
 220 O_a :3d2+  -0.0000  -0.0057   0.0003  -0.0025   0.1795  -0.1313  -0.0000
 235 O_a :4f3-   0.0000   0.0060  -0.0006   0.0100  -0.0163  -0.0044   0.0000
 237 O_a :4f1-  -0.0000  -0.0008   0.0006   0.0023   0.0109   0.0084  -0.0000
 238 O_a :4f0    0.0005  -0.0000  -0.0000  -0.0000   0.0000  -0.0000  -0.0165
 240 O_a :4f2+   0.0002  -0.0000  -0.0000  -0.0000   0.0000  -0.0000   0.0202
 241 O_a :4f3+   0.0000   0.0008   0.0012   0.0019  -0.0096   0.0202   0.0000

    Orbital        21       22       23       24       25       26
   2 Cl_a:1s    -0.0000   0.0145  -0.0016  -0.0000  -0.0034  -0.0000
   3 Cl_a:1s     0.0000   0.1071  -0.0018  -0.0000   0.0529   0.0000
   5 Cl_a:1s     0.0000  -0.0544  -0.0011   0.0000   0.0401   0.0000
   8 Cl_a:1s     0.0000  -2.2428  -1.1327   0.0000  -0.9080   0.0000
   9 Cl_a:1s     0.0000  -3.8619  -1.9102   0.0000  -4.3577   0.0000
  13 Cl_a:2px    0.0000   0.0591   0.0246  -0.0000   0.0350  -0.0000
  14 Cl_a:2py    0.0000   0.2338   0.0043  -0.0000   0.2151   0.0000
  15 Cl_a:2pz    0.1270  -0.0000  -0.0000  -0.0761  -0.0000   0.0402
  19 Cl_a:2px    0.0000  -0.1520   0.0831   0.0000   0.1303   0.0000
  20 Cl_a:2py    0.0000  -0.2546  -0.1186   0.0000  -0.0531   0.0000
  21 Cl_a:2pz    0.0169   0.0000  -0.0000  -0.0195   0.0000   0.1202
  28 Cl_a:2px   -0.0000  -0.5252   1.2960  -0.0000  -0.6000  -0.0000
  29 Cl_a:2py    0.0000  -1.2286  -0.9564   0.0000  -0.5621   0.0000
  30 Cl_a:2pz   -0.3242  -0.0000  -0.0000  -0.7563  -0.0000   0.2766
  31 Cl_a:2px   -0.0000   1.8043  -2.5494  -0.0000  -1.5792  -0.0000
  32 Cl_a:2py    0.0000   0.9451   1.4321   0.0000  -0.4923   0.0000
  33 Cl_a:2pz    0.4340   0.0000  -0.0000   2.8249  -0.0000  -0.9041
  44 Cl_a:3d2-  -0.0000  -0.0104   0.0012  -0.0000  -0.0066  -0.0000
  45 Cl_a:3d1-  -0.0201  -0.0000  -0.0000   0.0004  -0.0000  -0.0050
  46 Cl_a:3d0   -0.0000   0.0097   0.0017   0.0000   0.0108   0.0000
  48 Cl_a:3d2+  -0.0000   0.0146   0.0030  -0.0000   0.0139  -0.0000
  49 Cl_a:3d2-  -0.0000  -0.0194  -0.0055  -0.0000  -0.0184  -0.0000
  50 Cl_a:3d1-  -0.0280  -0.0000  -0.0000   0.0091  -0.0000  -0.0160
  51 Cl_a:3d0   -0.0000   0.0231   0.0006  -0.0000   0.0144   0.0000
  53 Cl_a:3d2+  -0.0000   0.0390   0.0005  -0.0000   0.0230  -0.0000
  54 Cl_a:3d2-  -0.0000  -0.1141   0.0688  -0.0000   0.0964  -0.0000
  55 Cl_a:3d1-  -0.0454  -0.0000  -0.0000  -0.0680  -0.0000   0.0810
  56 Cl_a:3d0   -0.0000   0.0652   0.0150  -0.0000   0.0271  -0.0000
  57 Cl_a:3d1+  -0.0167  -0.0000  -0.0000  -0.0082  -0.0000  -0.0016
  58 Cl_a:3d2+  -0.0000   0.0597   0.0802  -0.0000   0.0875  -0.0000
  59 Cl_a:3d2-  -0.0000  -0.0759   0.2862  -0.0000  -0.1724  -0.0000
  60 Cl_a:3d1-  -0.1266  -0.0000  -0.0000  -0.0879  -0.0000   0.0559
  61 Cl_a:3d0   -0.0000   0.0493  -0.0054  -0.0000   0.0329  -0.0000
  62 Cl_a:3d1+  -0.0229  -0.0000  -0.0000  -0.0423  -0.0000   0.0155
  63 Cl_a:3d2+  -0.0000   0.1242   0.2187  -0.0000   0.0314  -0.0000
  80 Cl_a:4f1-  -0.0000   0.0102   0.0008  -0.0000   0.0004  -0.0000
  85 Cl_a:4f3-   0.0000  -0.0008   0.0394   0.0000   0.0268   0.0000
  86 Cl_a:4f2-  -0.0104   0.0000   0.0000  -0.0092   0.0000   0.0012
  87 Cl_a:4f1-  -0.0000   0.0009   0.0024  -0.0000   0.0123  -0.0000
  88 Cl_a:4f0    0.0142  -0.0000  -0.0000   0.0139  -0.0000  -0.0315
  89 Cl_a:4f1+  -0.0000   0.0066  -0.0077  -0.0000  -0.0129  -0.0000
  90 Cl_a:4f2+   0.0142   0.0000  -0.0000   0.0243  -0.0000  -0.0248
  91 Cl_a:4f3+  -0.0000   0.0165  -0.0308  -0.0000  -0.0117  -0.0000
  92 N_a :1s     0.0000  -0.0157   0.0021  -0.0000  -0.0104   0.0000
  93 N_a :1s     0.0000  -0.1791   0.0073   0.0000  -0.1553   0.0000
  94 N_a :1s     0.0000   0.0109   0.0010   0.0000   0.0060   0.0000
  95 N_a :1s     0.0000   0.1243  -0.0096   0.0000  -0.1636   0.0000
  98 N_a :1s     0.0000   3.0600   1.7479   0.0000   1.1251  -0.0000
  99 N_a :1s     0.0000   3.1840   4.1443   0.0000   4.4834   0.0000
 100 N_a :2px    0.0000   0.0348   0.0029   0.0000   0.0332   0.0000
 101 N_a :2py    0.0000   0.3010   0.0268  -0.0000   0.2654   0.0000
 102 N_a :2pz   -0.6297   0.0000   0.0000   0.1085   0.0000  -0.1791
 104 N_a :2py    0.0000   0.0181   0.0047   0.0000   0.0096   0.0000
 105 N_a :2pz   -0.0070  -0.0000   0.0000  -0.0013  -0.0000  -0.0112
 106 N_a :2px    0.0000  -0.0061  -0.2234   0.0000   0.0729   0.0000
 107 N_a :2py    0.0000  -0.1461   0.1218   0.0000  -0.0537   0.0000
 108 N_a :2pz   -0.2217  -0.0000   0.0000   0.2178   0.0000  -0.0136
 115 N_a :2px    0.0000  -0.5522  -1.9591   0.0000   1.0704   0.0000
 116 N_a :2py    0.0000  -1.0711   0.3520   0.0000  -2.1176   0.0000
 117 N_a :2pz   -0.5970   0.0000   0.0000   1.3530   0.0000   1.1904
 118 N_a :2px    0.0000  -2.4564   2.5038   0.0000   4.2750   0.0000
 119 N_a :2py    0.0000  -2.8085  -1.6677   0.0000  -0.9868   0.0000
 120 N_a :2pz   -0.3751  -0.0000   0.0000  -2.7978   0.0000   4.4709
 131 N_a :3d2-   0.0000  -0.0015   0.0056   0.0000  -0.0109   0.0000
 132 N_a :3d1-   0.0109  -0.0000  -0.0000   0.0042  -0.0000  -0.0027
 134 N_a :3d1+   0.0166   0.0000   0.0000   0.0103   0.0000   0.0039
 135 N_a :3d2+   0.0000   0.0048  -0.0146   0.0000   0.0014   0.0000
 136 N_a :3d2-  -0.0000   0.0230   0.1500  -0.0000   0.0937  -0.0000
 137 N_a :3d1-  -0.0447   0.0000  -0.0000  -0.0464  -0.0000   0.0696
 138 N_a :3d0   -0.0000  -0.0746  -0.0027  -0.0000  -0.0139  -0.0000
 139 N_a :3d1+  -0.0221  -0.0000   0.0000   0.0511   0.0000   0.0009
 140 N_a :3d2+   0.0000  -0.1294  -0.0885   0.0000   0.0917   0.0000
 141 N_a :3d2-  -0.0000   0.1376   0.8189  -0.0000  -0.5132  -0.0000
 142 N_a :3d1-  -0.2034  -0.0000  -0.0000  -0.1385  -0.0000   0.1219
 143 N_a :3d0    0.0000  -0.0891  -0.0863  -0.0000  -0.2678   0.0000
 144 N_a :3d1+  -0.1568  -0.0000   0.0000   0.1468   0.0000   0.6145
 145 N_a :3d2+   0.0000  -0.5021  -0.2860   0.0000   0.2146   0.0000
 160 N_a :4f3-  -0.0000   0.0482  -0.0108  -0.0000  -0.0202  -0.0000
 161 N_a :4f2-  -0.0066   0.0000   0.0000   0.0173  -0.0000  -0.0333
 162 N_a :4f1-  -0.0000   0.0100  -0.0081  -0.0000   0.0216  -0.0000
 163 N_a :4f0   -0.0140  -0.0000  -0.0000  -0.0253  -0.0000   0.0304
 164 N_a :4f1+  -0.0000  -0.0132   0.0061  -0.0000   0.0161  -0.0000
 165 N_a :4f2+  -0.0154  -0.0000  -0.0000  -0.0177  -0.0000   0.0124
 166 N_a :4f3+  -0.0000  -0.0244   0.0173  -0.0000   0.0627  -0.0000
 168 O_a :1s    -0.0000  -0.0114  -0.0122   0.0000  -0.0084  -0.0000
 170 O_a :1s    -0.0000  -0.0080   0.1872  -0.0000  -0.1317  -0.0000
 173 O_a :1s    -0.0000  -0.2859   0.2455  -0.0000  -0.8420  -0.0000
 174 O_a :1s    -0.0000  -0.2045  -3.3867  -0.0000  -0.6047  -0.0000
 175 O_a :2px    0.0000  -0.0232  -0.0012   0.0000  -0.0102   0.0000
 176 O_a :2py    0.0000  -0.1421  -0.0108  -0.0000  -0.1543  -0.0000
 177 O_a :2pz    0.4974  -0.0000  -0.0000  -0.0676  -0.0000   0.1870
 178 O_a :2px    0.0000   0.0032  -0.0127   0.0000   0.0038   0.0000
 181 O_a :2px    0.0000   0.0301  -0.0282   0.0000  -0.0080   0.0000
 182 O_a :2py   -0.0000  -0.0410  -0.1313  -0.0000  -0.0308  -0.0000
 183 O_a :2pz    0.1645   0.0000  -0.0000  -0.1047  -0.0000   0.0718
 190 O_a :2px   -0.0000   0.6078   1.0193  -0.0000  -0.6417  -0.0000
 191 O_a :2py    0.0000  -0.3036  -0.7426  -0.0000   1.2480   0.0000
 192 O_a :2pz    0.7314  -0.0000  -0.0000  -0.8022  -0.0000  -1.1300
 193 O_a :2px   -0.0000   0.6657   0.1960   0.0000  -3.5295   0.0000
 194 O_a :2py    0.0000   0.9439  -0.0584   0.0000   0.0329   0.0000
 195 O_a :2pz    0.6227   0.0000  -0.0000   0.2702  -0.0000  -4.3467
 206 O_a :3d2-   0.0000  -0.0103   0.0026   0.0000  -0.0088   0.0000
 209 O_a :3d1+   0.0150   0.0000   0.0000   0.0003   0.0000   0.0022
 211 O_a :3d2-   0.0000  -0.0190   0.0598   0.0000  -0.0187   0.0000
 213 O_a :3d0   -0.0000   0.0144   0.0079  -0.0000  -0.0225  -0.0000
 214 O_a :3d1+  -0.0111  -0.0000   0.0000   0.0480   0.0000  -0.0120
 215 O_a :3d2+   0.0000   0.0077  -0.0322   0.0000   0.0082   0.0000
 216 O_a :3d2-   0.0000   0.0241   0.0485   0.0000  -0.2342   0.0000
 217 O_a :3d1-   0.0308   0.0000   0.0000   0.0254   0.0000   0.0653
 218 O_a :3d0   -0.0000   0.1065   0.2340  -0.0000  -0.1304  -0.0000
 219 O_a :3d1+  -0.1093  -0.0000   0.0000   0.1850   0.0000   0.3710
 220 O_a :3d2+   0.0000  -0.0990  -0.1138   0.0000   0.2385   0.0000
 235 O_a :4f3-  -0.0000   0.0107  -0.0166  -0.0000   0.0120  -0.0000
 237 O_a :4f1-   0.0000  -0.0005  -0.0038   0.0000  -0.0114   0.0000
 238 O_a :4f0   -0.0052   0.0000   0.0000   0.0171   0.0000   0.0184
 239 O_a :4f1+   0.0000  -0.0121  -0.0261   0.0000   0.0232   0.0000
 240 O_a :4f2+   0.0114   0.0000   0.0000  -0.0180   0.0000  -0.0282
 241 O_a :4f3+  -0.0000   0.0011   0.0033   0.0000  -0.0228   0.0000

  Total CPU  time used in SIRIUS :  1 minute  51 seconds
  Total wall time used in SIRIUS :  1 minute  51 seconds

 
     Date and time (Linux)  : Thu Sep 14 01:15:05 2023
     Host name              : sn-mem                                  


                     .---------------------------------------.
                     | End of Wave Function Section (SIRIUS) |
                     `---------------------------------------'



                 .------------------------------------------------.
                 | Starting in Dynamic Property Section (RESPONS) |
                 `------------------------------------------------'


 ----------------------------------------------------------------------------------------
  RESPONSE  -  an MCSCF, MC-srDFT, DFT, SOPPA and SOPPA-srDFT response property program
 ----------------------------------------------------------------------------------------


 -------- OUTPUT FROM RESPONSE INPUT PROCESSING --------




 Quadratic Response calculation
 ------------------------------

 First hyperpolarizability calculation : HYPCAL= T

 Spin of operator A , ISPINA=    0
 Spin of operator B , ISPINB=    0
 Spin of operator C , ISPINC=    0

  5 B-frequencies  0.000000D+00  6.344563D-03  1.268913D-02  1.903369D-02  2.537825D-02
  5 C-frequencies  0.000000D+00  6.344563D-03  1.268913D-02  1.903369D-02  2.537825D-02


 Print level                                    : IPRHYP =   2
 Maximum number of iterations in lin.rsp. solver: MAXITL =  60
 Threshold for convergence of linear resp. eq.s : THCLR  = 1.000D-03
 Maximum iterations in optimal orbital algorithm: MAXITO =   5
 Direct one-index transformation                : DIROIT = T

    3 A OPERATORS OF SYMMETRY NO:    1 AND LABELS:

          XDIPLEN 
          YDIPLEN 
          ZDIPLEN 

    3 B OPERATORS OF SYMMETRY NO:    1 AND LABELS:

          XDIPLEN 
          YDIPLEN 
          ZDIPLEN 

    3 C OPERATORS OF SYMMETRY NO:    1 AND LABELS:

          XDIPLEN 
          YDIPLEN 
          ZDIPLEN 


   SCF energy         :     -588.770883491201971
 -- inactive part     :     -673.919303275655011
 -- nuclear repulsion :       85.148419784453068


                     ***************************************
                     *** RHF response calculation (TDHF) ***
                     ***************************************



 Linear response calculations for quadratic response
 - singlet property operator of symmetry    1  ( A  )


 Perturbation symmetry.     KSYMOP:           1
 Perturbation spin symmetry.TRPLET:           F
 Orbital variables.         KZWOPT:        3600
 Configuration variables.   KZCONF:           0
 Total number of variables. KZVAR :        3600


 QRLRVE -- linear response calculation for symmetry  1  ( A  )
 QRLRVE -- operator label : XDIPLEN 
 QRLRVE -- operator spin  :   0
 QRLRVE -- frequencies :  0.000000  0.006345  0.012689  0.019034  0.025378
                          0.031723  0.038067  0.044412  0.050757



 ---  SOLVING SETS OF LINEAR EQUATIONS FOR LINEAR RESPONSE PROPERTIES ---

 Operator symmetry = 1  ( A  ); triplet =   F

RSPORT:    2 out of    9 new trial vectors linear dependent

 ** RSPCTL MICROITERATION NUMBER    1

       No.  Residual tot.,    conf., and orb.    Bnorm      Frequency 
      ----------------------------------------------------------------
         1    4.19693D+00  0.00D+00  4.20D+00  4.12D+00    0.00000D+00
         2    4.19767D+00  0.00D+00  4.20D+00  4.12D+00    6.34456D-03
         3    4.19990D+00  0.00D+00  4.20D+00  4.12D+00    1.26891D-02
         4    4.20362D+00  0.00D+00  4.20D+00  4.13D+00    1.90337D-02
         5    4.20886D+00  0.00D+00  4.21D+00  4.15D+00    2.53783D-02
         6    4.21562D+00  0.00D+00  4.22D+00  4.16D+00    3.17228D-02
         7    4.22395D+00  0.00D+00  4.22D+00  4.18D+00    3.80674D-02
         8    4.23388D+00  0.00D+00  4.23D+00  4.20D+00    4.44119D-02
         9    4.24544D+00  0.00D+00  4.25D+00  4.23D+00    5.07565D-02

 ** RSPCTL MICROITERATION NUMBER    2

       No.  Residual tot.,    conf., and orb.    Bnorm      Frequency 
      ----------------------------------------------------------------
         1    1.24235D+00  0.00D+00  1.24D+00  5.09D+00    0.00000D+00
         2    1.24280D+00  0.00D+00  1.24D+00  5.09D+00    6.34456D-03
         3    1.24416D+00  0.00D+00  1.24D+00  5.10D+00    1.26891D-02
         4    1.24643D+00  0.00D+00  1.25D+00  5.11D+00    1.90337D-02
         5    1.24964D+00  0.00D+00  1.25D+00  5.13D+00    2.53783D-02
         6    1.25382D+00  0.00D+00  1.25D+00  5.16D+00    3.17228D-02
         7    1.25901D+00  0.00D+00  1.26D+00  5.19D+00    3.80674D-02
         8    1.26524D+00  0.00D+00  1.27D+00  5.23D+00    4.44119D-02
         9    1.27259D+00  0.00D+00  1.27D+00  5.28D+00    5.07565D-02

 ** RSPCTL MICROITERATION NUMBER    3

       No.  Residual tot.,    conf., and orb.    Bnorm      Frequency 
      ----------------------------------------------------------------
         1    3.35633D-01  0.00D+00  3.36D-01  5.24D+00    0.00000D+00
         2    3.35824D-01  0.00D+00  3.36D-01  5.24D+00    6.34456D-03
         3    3.36399D-01  0.00D+00  3.36D-01  5.25D+00    1.26891D-02
         4    3.37363D-01  0.00D+00  3.37D-01  5.27D+00    1.90337D-02
         5    3.38728D-01  0.00D+00  3.39D-01  5.29D+00    2.53783D-02
         6    3.40507D-01  0.00D+00  3.41D-01  5.32D+00    3.17228D-02
         7    3.42721D-01  0.00D+00  3.43D-01  5.35D+00    3.80674D-02
         8    3.45396D-01  0.00D+00  3.45D-01  5.40D+00    4.44119D-02
         9    3.48565D-01  0.00D+00  3.49D-01  5.45D+00    5.07565D-02

 ** RSPCTL MICROITERATION NUMBER    4

       No.  Residual tot.,    conf., and orb.    Bnorm      Frequency 
      ----------------------------------------------------------------
         1    1.04934D-01  0.00D+00  1.05D-01  5.25D+00    0.00000D+00
         2    1.05018D-01  0.00D+00  1.05D-01  5.25D+00    6.34456D-03
         3    1.05269D-01  0.00D+00  1.05D-01  5.26D+00    1.26891D-02
         4    1.05692D-01  0.00D+00  1.06D-01  5.27D+00    1.90337D-02
         5    1.06291D-01  0.00D+00  1.06D-01  5.30D+00    2.53783D-02
         6    1.07073D-01  0.00D+00  1.07D-01  5.33D+00    3.17228D-02
         7    1.08050D-01  0.00D+00  1.08D-01  5.36D+00    3.80674D-02
         8    1.09233D-01  0.00D+00  1.09D-01  5.41D+00    4.44119D-02
         9    1.10640D-01  0.00D+00  1.11D-01  5.46D+00    5.07565D-02

 ** RSPCTL MICROITERATION NUMBER    5

       No.  Residual tot.,    conf., and orb.    Bnorm      Frequency 
      ----------------------------------------------------------------
         1    2.41623D-02  0.00D+00  2.42D-02  5.25D+00    0.00000D+00
         2    2.41845D-02  0.00D+00  2.42D-02  5.25D+00    6.34456D-03
         3    2.42513D-02  0.00D+00  2.43D-02  5.26D+00    1.26891D-02
         4    2.43637D-02  0.00D+00  2.44D-02  5.28D+00    1.90337D-02
         5    2.45233D-02  0.00D+00  2.45D-02  5.30D+00    2.53783D-02
         6    2.47321D-02  0.00D+00  2.47D-02  5.33D+00    3.17228D-02
         7    2.49934D-02  0.00D+00  2.50D-02  5.36D+00    3.80674D-02
         8    2.53110D-02  0.00D+00  2.53D-02  5.41D+00    4.44119D-02
         9    2.56901D-02  0.00D+00  2.57D-02  5.46D+00    5.07565D-02

 ** RSPCTL MICROITERATION NUMBER    6

       No.  Residual tot.,    conf., and orb.    Bnorm      Frequency 
      ----------------------------------------------------------------
         1    3.15870D-03  0.00D+00  3.16D-03  5.25D+00    0.00000D+00
         2    3.16251D-03  0.00D+00  3.16D-03  5.25D+00    6.34456D-03
         3    3.17401D-03  0.00D+00  3.17D-03  5.26D+00    1.26891D-02
         4    3.19337D-03  0.00D+00  3.19D-03  5.28D+00    1.90337D-02
         5    3.22086D-03  0.00D+00  3.22D-03  5.30D+00    2.53783D-02
         6    3.25693D-03  0.00D+00  3.26D-03  5.33D+00    3.17228D-02
         7    3.30213D-03  0.00D+00  3.30D-03  5.36D+00    3.80674D-02
         8    3.35721D-03  0.00D+00  3.36D-03  5.41D+00    4.44119D-02
         9    3.42314D-03  0.00D+00  3.42D-03  5.46D+00    5.07565D-02

 *** THE REQUESTED    9 SOLUTION VECTORS CONVERGED

 Convergence of RSP solution vectors, threshold = 1.00D-03
 ---------------------------------------------------------------
 (dimension of paired reduced space:  104)
 RSP solution vector no.    1; norm of residual   6.02D-04
 RSP solution vector no.    2; norm of residual   6.02D-04
 RSP solution vector no.    3; norm of residual   6.04D-04
 RSP solution vector no.    4; norm of residual   6.05D-04
 RSP solution vector no.    5; norm of residual   6.08D-04
 RSP solution vector no.    6; norm of residual   6.11D-04
 RSP solution vector no.    7; norm of residual   6.16D-04
 RSP solution vector no.    8; norm of residual   6.21D-04
 RSP solution vector no.    9; norm of residual   6.27D-04

 *** RSPCTL MICROITERATIONS CONVERGED

@ QRLRVE: SINGLET SOLUTION FOR SYMMETRY    1  ( A  )    LABEL   XDIPLEN     FREQUENCY   0.000000D+00

@ QRLRVE:  << XDIPLEN  ; XDIPLEN  >> (   0.00000):     31.7283373883    

@ QRLRVE:  << YDIPLEN  ; XDIPLEN  >> (   0.00000):     12.8383056231    

@ QRLRVE:  << ZDIPLEN  ; XDIPLEN  >> (   0.00000):    6.243809643092E-16

@ QRLRVE: SINGLET SOLUTION FOR SYMMETRY    1  ( A  )    LABEL   XDIPLEN     FREQUENCY   0.634456D-02

@ QRLRVE:  << XDIPLEN  ; XDIPLEN  >> (   0.00634):     31.7354196682    

@ QRLRVE:  << YDIPLEN  ; XDIPLEN  >> (   0.00634):     12.8463734946    

@ QRLRVE:  << ZDIPLEN  ; XDIPLEN  >> (   0.00634):    6.148397943476E-16

@ QRLRVE: SINGLET SOLUTION FOR SYMMETRY    1  ( A  )    LABEL   XDIPLEN     FREQUENCY   0.126891D-01

@ QRLRVE:  << XDIPLEN  ; XDIPLEN  >> (   0.01269):     31.7567059246    

@ QRLRVE:  << YDIPLEN  ; XDIPLEN  >> (   0.01269):     12.8706478033    

@ QRLRVE:  << ZDIPLEN  ; XDIPLEN  >> (   0.01269):    5.858781727486E-16

@ QRLRVE: SINGLET SOLUTION FOR SYMMETRY    1  ( A  )    LABEL   XDIPLEN     FREQUENCY   0.190337D-01

@ QRLRVE:  << XDIPLEN  ; XDIPLEN  >> (   0.01903):     31.7923152172    

@ QRLRVE:  << YDIPLEN  ; XDIPLEN  >> (   0.01903):     12.9113423653    

@ QRLRVE:  << ZDIPLEN  ; XDIPLEN  >> (   0.01903):    5.364651672509E-16

@ QRLRVE: SINGLET SOLUTION FOR SYMMETRY    1  ( A  )    LABEL   XDIPLEN     FREQUENCY   0.253783D-01

@ QRLRVE:  << XDIPLEN  ; XDIPLEN  >> (   0.02538):     31.8424487158    

@ QRLRVE:  << YDIPLEN  ; XDIPLEN  >> (   0.02538):     12.9688194056    

@ QRLRVE:  << ZDIPLEN  ; XDIPLEN  >> (   0.02538):    4.648260533924E-16

@ QRLRVE: SINGLET SOLUTION FOR SYMMETRY    1  ( A  )    LABEL   XDIPLEN     FREQUENCY   0.317228D-01

@ QRLRVE:  << XDIPLEN  ; XDIPLEN  >> (   0.03172):     31.9073939392    

@ QRLRVE:  << YDIPLEN  ; XDIPLEN  >> (   0.03172):     13.0435986586    

@ QRLRVE:  << ZDIPLEN  ; XDIPLEN  >> (   0.03172):    3.683533095384E-16

@ QRLRVE: SINGLET SOLUTION FOR SYMMETRY    1  ( A  )    LABEL   XDIPLEN     FREQUENCY   0.380674D-01

@ QRLRVE:  << XDIPLEN  ; XDIPLEN  >> (   0.03807):     31.9875309682    

@ QRLRVE:  << YDIPLEN  ; XDIPLEN  >> (   0.03807):     13.1363707465    

@ QRLRVE:  << ZDIPLEN  ; XDIPLEN  >> (   0.03807):    2.434730704183E-16

@ QRLRVE: SINGLET SOLUTION FOR SYMMETRY    1  ( A  )    LABEL   XDIPLEN     FREQUENCY   0.444119D-01

@ QRLRVE:  << XDIPLEN  ; XDIPLEN  >> (   0.04441):     32.0833409400    

@ QRLRVE:  << YDIPLEN  ; XDIPLEN  >> (   0.04441):     13.2480155341    

@ QRLRVE:  << ZDIPLEN  ; XDIPLEN  >> (   0.04441):    8.545700706886E-17

@ QRLRVE: SINGLET SOLUTION FOR SYMMETRY    1  ( A  )    LABEL   XDIPLEN     FREQUENCY   0.507565D-01

@ QRLRVE:  << XDIPLEN  ; XDIPLEN  >> (   0.05076):     32.1954172594    

@ QRLRVE:  << YDIPLEN  ; XDIPLEN  >> (   0.05076):     13.3796264632    

@ QRLRVE:  << ZDIPLEN  ; XDIPLEN  >> (   0.05076):   -1.118349979571E-16


 QRLRVE -- linear response calculation for symmetry  1  ( A  )
 QRLRVE -- operator label : YDIPLEN 
 QRLRVE -- operator spin  :   0
 QRLRVE -- frequencies :  0.000000  0.006345  0.012689  0.019034  0.025378
                          0.031723  0.038067  0.044412  0.050757



 ---  SOLVING SETS OF LINEAR EQUATIONS FOR LINEAR RESPONSE PROPERTIES ---

 Operator symmetry = 1  ( A  ); triplet =   F

RSPORT:    2 out of    9 new trial vectors linear dependent

 ** RSPCTL MICROITERATION NUMBER    1

       No.  Residual tot.,    conf., and orb.    Bnorm      Frequency 
      ----------------------------------------------------------------
         1    4.86042D+00  0.00D+00  4.86D+00  5.60D+00    0.00000D+00
         2    4.86211D+00  0.00D+00  4.86D+00  5.61D+00    6.34456D-03
         3    4.86717D+00  0.00D+00  4.87D+00  5.62D+00    1.26891D-02
         4    4.87564D+00  0.00D+00  4.88D+00  5.64D+00    1.90337D-02
         5    4.88755D+00  0.00D+00  4.89D+00  5.67D+00    2.53783D-02
         6    4.90298D+00  0.00D+00  4.90D+00  5.70D+00    3.17228D-02
         7    4.92201D+00  0.00D+00  4.92D+00  5.75D+00    3.80674D-02
         8    4.94473D+00  0.00D+00  4.94D+00  5.80D+00    4.44119D-02
         9    4.97128D+00  0.00D+00  4.97D+00  5.86D+00    5.07565D-02

 ** RSPCTL MICROITERATION NUMBER    2

       No.  Residual tot.,    conf., and orb.    Bnorm      Frequency 
      ----------------------------------------------------------------
         1    1.71931D+00  0.00D+00  1.72D+00  7.42D+00    0.00000D+00
         2    1.72064D+00  0.00D+00  1.72D+00  7.43D+00    6.34456D-03
         3    1.72465D+00  0.00D+00  1.72D+00  7.45D+00    1.26891D-02
         4    1.73138D+00  0.00D+00  1.73D+00  7.49D+00    1.90337D-02
         5    1.74089D+00  0.00D+00  1.74D+00  7.54D+00    2.53783D-02
         6    1.75329D+00  0.00D+00  1.75D+00  7.60D+00    3.17228D-02
         7    1.76872D+00  0.00D+00  1.77D+00  7.68D+00    3.80674D-02
         8    1.78734D+00  0.00D+00  1.79D+00  7.78D+00    4.44119D-02
         9    1.80936D+00  0.00D+00  1.81D+00  7.90D+00    5.07565D-02

 ** RSPCTL MICROITERATION NUMBER    3

       No.  Residual tot.,    conf., and orb.    Bnorm      Frequency 
      ----------------------------------------------------------------
         1    5.11761D-01  0.00D+00  5.12D-01  7.69D+00    0.00000D+00
         2    5.12376D-01  0.00D+00  5.12D-01  7.70D+00    6.34456D-03
         3    5.14230D-01  0.00D+00  5.14D-01  7.72D+00    1.26891D-02
         4    5.17351D-01  0.00D+00  5.17D-01  7.76D+00    1.90337D-02
         5    5.21783D-01  0.00D+00  5.22D-01  7.82D+00    2.53783D-02
         6    5.27596D-01  0.00D+00  5.28D-01  7.89D+00    3.17228D-02
         7    5.34877D-01  0.00D+00  5.35D-01  7.98D+00    3.80674D-02
         8    5.43742D-01  0.00D+00  5.44D-01  8.09D+00    4.44119D-02
         9    5.54337D-01  0.00D+00  5.54D-01  8.23D+00    5.07565D-02

 ** RSPCTL MICROITERATION NUMBER    4

       No.  Residual tot.,    conf., and orb.    Bnorm      Frequency 
      ----------------------------------------------------------------
         1    1.36265D-01  0.00D+00  1.36D-01  7.70D+00    0.00000D+00
         2    1.36424D-01  0.00D+00  1.36D-01  7.71D+00    6.34456D-03
         3    1.36907D-01  0.00D+00  1.37D-01  7.73D+00    1.26891D-02
         4    1.37719D-01  0.00D+00  1.38D-01  7.77D+00    1.90337D-02
         5    1.38874D-01  0.00D+00  1.39D-01  7.83D+00    2.53783D-02
         6    1.40392D-01  0.00D+00  1.40D-01  7.91D+00    3.17228D-02
         7    1.42297D-01  0.00D+00  1.42D-01  8.00D+00    3.80674D-02
         8    1.44624D-01  0.00D+00  1.45D-01  8.11D+00    4.44119D-02
         9    1.47414D-01  0.00D+00  1.47D-01  8.24D+00    5.07565D-02

 ** RSPCTL MICROITERATION NUMBER    5

       No.  Residual tot.,    conf., and orb.    Bnorm      Frequency 
      ----------------------------------------------------------------
         1    2.23725D-02  0.00D+00  2.24D-02  7.70D+00    0.00000D+00
         2    2.23934D-02  0.00D+00  2.24D-02  7.71D+00    6.34456D-03
         3    2.24564D-02  0.00D+00  2.25D-02  7.73D+00    1.26891D-02
         4    2.25625D-02  0.00D+00  2.26D-02  7.77D+00    1.90337D-02
         5    2.27135D-02  0.00D+00  2.27D-02  7.83D+00    2.53783D-02
         6    2.29120D-02  0.00D+00  2.29D-02  7.91D+00    3.17228D-02
         7    2.31614D-02  0.00D+00  2.32D-02  8.00D+00    3.80674D-02
         8    2.34664D-02  0.00D+00  2.35D-02  8.11D+00    4.44119D-02
         9    2.38329D-02  0.00D+00  2.38D-02  8.24D+00    5.07565D-02

 ** RSPCTL MICROITERATION NUMBER    6

       No.  Residual tot.,    conf., and orb.    Bnorm      Frequency 
      ----------------------------------------------------------------
         1    3.69223D-03  0.00D+00  3.69D-03  7.70D+00    0.00000D+00
         2    3.69664D-03  0.00D+00  3.70D-03  7.71D+00    6.34456D-03
         3    3.70994D-03  0.00D+00  3.71D-03  7.73D+00    1.26891D-02
         4    3.73243D-03  0.00D+00  3.73D-03  7.77D+00    1.90337D-02
         5    3.76455D-03  0.00D+00  3.76D-03  7.83D+00    2.53783D-02
         6    3.80700D-03  0.00D+00  3.81D-03  7.91D+00    3.17228D-02
         7    3.86072D-03  0.00D+00  3.86D-03  8.00D+00    3.80674D-02
         8    3.92693D-03  0.00D+00  3.93D-03  8.11D+00    4.44119D-02
         9    4.00723D-03  0.00D+00  4.01D-03  8.24D+00    5.07565D-02

 *** THE REQUESTED    9 SOLUTION VECTORS CONVERGED

 Convergence of RSP solution vectors, threshold = 1.00D-03
 ---------------------------------------------------------------
 (dimension of paired reduced space:  104)
 RSP solution vector no.    1; norm of residual   4.79D-04
 RSP solution vector no.    2; norm of residual   4.79D-04
 RSP solution vector no.    3; norm of residual   4.80D-04
 RSP solution vector no.    4; norm of residual   4.80D-04
 RSP solution vector no.    5; norm of residual   4.81D-04
 RSP solution vector no.    6; norm of residual   4.81D-04
 RSP solution vector no.    7; norm of residual   4.83D-04
 RSP solution vector no.    8; norm of residual   4.84D-04
 RSP solution vector no.    9; norm of residual   4.86D-04

 *** RSPCTL MICROITERATIONS CONVERGED

@ QRLRVE: SINGLET SOLUTION FOR SYMMETRY    1  ( A  )    LABEL   YDIPLEN     FREQUENCY   0.000000D+00

@ QRLRVE:  << XDIPLEN  ; YDIPLEN  >> (   0.00000):     12.8386482695    

@ QRLRVE:  << YDIPLEN  ; YDIPLEN  >> (   0.00000):     47.7772197603    

@ QRLRVE:  << ZDIPLEN  ; YDIPLEN  >> (   0.00000):    4.627073248949E-15

@ QRLRVE: SINGLET SOLUTION FOR SYMMETRY    1  ( A  )    LABEL   YDIPLEN     FREQUENCY   0.634456D-02

@ QRLRVE:  << XDIPLEN  ; YDIPLEN  >> (   0.00634):     12.8467165683    

@ QRLRVE:  << YDIPLEN  ; YDIPLEN  >> (   0.00634):     47.7980837020    

@ QRLRVE:  << ZDIPLEN  ; YDIPLEN  >> (   0.00634):    4.635528551878E-15

@ QRLRVE: SINGLET SOLUTION FOR SYMMETRY    1  ( A  )    LABEL   YDIPLEN     FREQUENCY   0.126891D-01

@ QRLRVE:  << XDIPLEN  ; YDIPLEN  >> (   0.01269):     12.8709921650    

@ QRLRVE:  << YDIPLEN  ; YDIPLEN  >> (   0.01269):     47.8608491228    

@ QRLRVE:  << ZDIPLEN  ; YDIPLEN  >> (   0.01269):    4.661028257680E-15

@ QRLRVE: SINGLET SOLUTION FOR SYMMETRY    1  ( A  )    LABEL   YDIPLEN     FREQUENCY   0.190337D-01

@ QRLRVE:  << XDIPLEN  ; YDIPLEN  >> (   0.01903):     12.9116888942    

@ QRLRVE:  << YDIPLEN  ; YDIPLEN  >> (   0.01903):     47.9660410431    

@ QRLRVE:  << ZDIPLEN  ; YDIPLEN  >> (   0.01903):    4.703978851692E-15

@ QRLRVE: SINGLET SOLUTION FOR SYMMETRY    1  ( A  )    LABEL   YDIPLEN     FREQUENCY   0.253783D-01

@ QRLRVE:  << XDIPLEN  ; YDIPLEN  >> (   0.02538):     12.9691690119    

@ QRLRVE:  << YDIPLEN  ; YDIPLEN  >> (   0.02538):     48.1145488167    

@ QRLRVE:  << ZDIPLEN  ; YDIPLEN  >> (   0.02538):    4.765075123219E-15

@ QRLRVE: SINGLET SOLUTION FOR SYMMETRY    1  ( A  )    LABEL   YDIPLEN     FREQUENCY   0.317228D-01

@ QRLRVE:  << XDIPLEN  ; YDIPLEN  >> (   0.03172):     13.0439522979    

@ QRLRVE:  << YDIPLEN  ; YDIPLEN  >> (   0.03172):     48.3076483537    

@ QRLRVE:  << ZDIPLEN  ; YDIPLEN  >> (   0.03172):    4.845327333566E-15

@ QRLRVE: SINGLET SOLUTION FOR SYMMETRY    1  ( A  )    LABEL   YDIPLEN     FREQUENCY   0.380674D-01

@ QRLRVE:  << XDIPLEN  ; YDIPLEN  >> (   0.03807):     13.1367294343    

@ QRLRVE:  << YDIPLEN  ; YDIPLEN  >> (   0.03807):     48.5470347840    

@ QRLRVE:  << ZDIPLEN  ; YDIPLEN  >> (   0.03807):    4.946101768402E-15

@ QRLRVE: SINGLET SOLUTION FOR SYMMETRY    1  ( A  )    LABEL   YDIPLEN     FREQUENCY   0.444119D-01

@ QRLRVE:  << XDIPLEN  ; YDIPLEN  >> (   0.04441):     13.2483803635    

@ QRLRVE:  << YDIPLEN  ; YDIPLEN  >> (   0.04441):     48.8348672709    

@ QRLRVE:  << ZDIPLEN  ; YDIPLEN  >> (   0.04441):    5.069177494433E-15

@ QRLRVE: SINGLET SOLUTION FOR SYMMETRY    1  ( A  )    LABEL   YDIPLEN     FREQUENCY   0.507565D-01

@ QRLRVE:  << XDIPLEN  ; YDIPLEN  >> (   0.05076):     13.3799986238    

@ QRLRVE:  << YDIPLEN  ; YDIPLEN  >> (   0.05076):     49.1738284151    

@ QRLRVE:  << ZDIPLEN  ; YDIPLEN  >> (   0.05076):    5.216823426961E-15


 QRLRVE -- linear response calculation for symmetry  1  ( A  )
 QRLRVE -- operator label : ZDIPLEN 
 QRLRVE -- operator spin  :   0
 QRLRVE -- frequencies :  0.000000  0.006345  0.012689  0.019034  0.025378
                          0.031723  0.038067  0.044412  0.050757



 ---  SOLVING SETS OF LINEAR EQUATIONS FOR LINEAR RESPONSE PROPERTIES ---

 Operator symmetry = 1  ( A  ); triplet =   F

RSPORT:    2 out of    9 new trial vectors linear dependent

 ** RSPCTL MICROITERATION NUMBER    1

       No.  Residual tot.,    conf., and orb.    Bnorm      Frequency 
      ----------------------------------------------------------------
         1    1.82351D+00  0.00D+00  1.82D+00  3.65D+00    0.00000D+00
         2    1.82370D+00  0.00D+00  1.82D+00  3.65D+00    6.34456D-03
         3    1.82426D+00  0.00D+00  1.82D+00  3.66D+00    1.26891D-02
         4    1.82521D+00  0.00D+00  1.83D+00  3.66D+00    1.90337D-02
         5    1.82653D+00  0.00D+00  1.83D+00  3.67D+00    2.53783D-02
         6    1.82823D+00  0.00D+00  1.83D+00  3.68D+00    3.17228D-02
         7    1.83032D+00  0.00D+00  1.83D+00  3.69D+00    3.80674D-02
         8    1.83281D+00  0.00D+00  1.83D+00  3.70D+00    4.44119D-02
         9    1.83569D+00  0.00D+00  1.84D+00  3.72D+00    5.07565D-02

 ** RSPCTL MICROITERATION NUMBER    2

       No.  Residual tot.,    conf., and orb.    Bnorm      Frequency 
      ----------------------------------------------------------------
         1    7.24161D-01  0.00D+00  7.24D-01  3.89D+00    0.00000D+00
         2    7.24457D-01  0.00D+00  7.24D-01  3.89D+00    6.34456D-03
         3    7.25349D-01  0.00D+00  7.25D-01  3.90D+00    1.26891D-02
         4    7.26852D-01  0.00D+00  7.27D-01  3.90D+00    1.90337D-02
         5    7.28988D-01  0.00D+00  7.29D-01  3.91D+00    2.53783D-02
         6    7.31795D-01  0.00D+00  7.32D-01  3.93D+00    3.17228D-02
         7    7.35320D-01  0.00D+00  7.35D-01  3.94D+00    3.80674D-02
         8    7.39627D-01  0.00D+00  7.40D-01  3.96D+00    4.44119D-02
         9    7.44802D-01  0.00D+00  7.45D-01  3.98D+00    5.07565D-02

 ** RSPCTL MICROITERATION NUMBER    3

       No.  Residual tot.,    conf., and orb.    Bnorm      Frequency 
      ----------------------------------------------------------------
         1    1.13742D-01  0.00D+00  1.14D-01  3.91D+00    0.00000D+00
         2    1.13799D-01  0.00D+00  1.14D-01  3.91D+00    6.34456D-03
         3    1.13976D-01  0.00D+00  1.14D-01  3.92D+00    1.26891D-02
         4    1.14290D-01  0.00D+00  1.14D-01  3.93D+00    1.90337D-02
         5    1.14775D-01  0.00D+00  1.15D-01  3.94D+00    2.53783D-02
         6    1.15488D-01  0.00D+00  1.15D-01  3.95D+00    3.17228D-02
         7    1.16525D-01  0.00D+00  1.17D-01  3.97D+00    3.80674D-02
         8    1.18044D-01  0.00D+00  1.18D-01  3.99D+00    4.44119D-02
         9    1.20312D-01  0.00D+00  1.20D-01  4.02D+00    5.07565D-02

 ** RSPCTL MICROITERATION NUMBER    4

       No.  Residual tot.,    conf., and orb.    Bnorm      Frequency 
      ----------------------------------------------------------------
         1    1.53767D-02  0.00D+00  1.54D-02  3.91D+00    0.00000D+00
         2    1.54132D-02  0.00D+00  1.54D-02  3.91D+00    6.34456D-03
[...]
@ B-freq = 0.019034  C-freq = 0.019034     beta(Y;Z,Y) =     -0.00000000
@ B-freq = 0.019034  C-freq = 0.019034     beta(Z;Z,Y) =     43.36390017
@ B-freq = 0.025378  C-freq = 0.019034     beta(X;Z,Y) =     -0.00000000
@ B-freq = 0.025378  C-freq = 0.019034     beta(Y;Z,Y) =     -0.00000000
@ B-freq = 0.025378  C-freq = 0.019034     beta(Z;Z,Y) =     43.45924567
@ B-freq = 0.000000  C-freq = 0.025378     beta(X;X,Y) = beta(X,Y,X)
@ B-freq = 0.000000  C-freq = 0.025378     beta(Y;X,Y) = beta(Y,Y,X)
@ B-freq = 0.000000  C-freq = 0.025378     beta(Z;X,Y) = beta(Z,Y,X)
@ B-freq = 0.006345  C-freq = 0.025378     beta(X;X,Y) = beta(X,Y,X)
@ B-freq = 0.006345  C-freq = 0.025378     beta(Y;X,Y) = beta(Y,Y,X)
@ B-freq = 0.006345  C-freq = 0.025378     beta(Z;X,Y) = beta(Z,Y,X)
@ B-freq = 0.012689  C-freq = 0.025378     beta(X;X,Y) = beta(X,Y,X)
@ B-freq = 0.012689  C-freq = 0.025378     beta(Y;X,Y) = beta(Y,Y,X)
@ B-freq = 0.012689  C-freq = 0.025378     beta(Z;X,Y) = beta(Z,Y,X)
@ B-freq = 0.019034  C-freq = 0.025378     beta(X;X,Y) = beta(X,Y,X)
@ B-freq = 0.019034  C-freq = 0.025378     beta(Y;X,Y) = beta(Y,Y,X)
@ B-freq = 0.019034  C-freq = 0.025378     beta(Z;X,Y) = beta(Z,Y,X)
@ B-freq = 0.025378  C-freq = 0.025378     beta(X;X,Y) = beta(X,Y,X)
@ B-freq = 0.025378  C-freq = 0.025378     beta(Y;X,Y) = beta(Y,Y,X)
@ B-freq = 0.025378  C-freq = 0.025378     beta(Z;X,Y) = beta(Z,Y,X)
@ B-freq = 0.000000  C-freq = 0.025378     beta(X;Y,Y) = beta(X,Y,Y)
@ B-freq = 0.000000  C-freq = 0.025378     beta(Y;Y,Y) = beta(Y,Y,Y)
@ B-freq = 0.000000  C-freq = 0.025378     beta(Z;Y,Y) = beta(Z,Y,Y)
@ B-freq = 0.006345  C-freq = 0.025378     beta(X;Y,Y) = beta(X,Y,Y)
@ B-freq = 0.006345  C-freq = 0.025378     beta(Y;Y,Y) = beta(Y,Y,Y)
@ B-freq = 0.006345  C-freq = 0.025378     beta(Z;Y,Y) = beta(Z,Y,Y)
@ B-freq = 0.012689  C-freq = 0.025378     beta(X;Y,Y) = beta(X,Y,Y)
@ B-freq = 0.012689  C-freq = 0.025378     beta(Y;Y,Y) = beta(Y,Y,Y)
@ B-freq = 0.012689  C-freq = 0.025378     beta(Z;Y,Y) = beta(Z,Y,Y)
@ B-freq = 0.019034  C-freq = 0.025378     beta(X;Y,Y) = beta(X,Y,Y)
@ B-freq = 0.019034  C-freq = 0.025378     beta(Y;Y,Y) = beta(Y,Y,Y)
@ B-freq = 0.019034  C-freq = 0.025378     beta(Z;Y,Y) = beta(Z,Y,Y)
@ B-freq = 0.025378  C-freq = 0.025378     beta(X;Y,Y) =     -0.69269057
@ B-freq = 0.025378  C-freq = 0.025378     beta(Y;Y,Y) =     68.59002632
@ B-freq = 0.025378  C-freq = 0.025378     beta(Z;Y,Y) =     -0.00000000
@ B-freq = 0.000000  C-freq = 0.025378     beta(X;Z,Y) =     -0.00000000
@ B-freq = 0.000000  C-freq = 0.025378     beta(Y;Z,Y) =     -0.00000000
@ B-freq = 0.000000  C-freq = 0.025378     beta(Z;Z,Y) =     43.44698249
@ B-freq = 0.006345  C-freq = 0.025378     beta(X;Z,Y) =     -0.00000000
@ B-freq = 0.006345  C-freq = 0.025378     beta(Y;Z,Y) =     -0.00000000
@ B-freq = 0.006345  C-freq = 0.025378     beta(Z;Z,Y) =     43.50497602
@ B-freq = 0.012689  C-freq = 0.025378     beta(X;Z,Y) =     -0.00000000
@ B-freq = 0.012689  C-freq = 0.025378     beta(Y;Z,Y) =     -0.00000000
@ B-freq = 0.012689  C-freq = 0.025378     beta(Z;Z,Y) =     43.58111679
@ B-freq = 0.019034  C-freq = 0.025378     beta(X;Z,Y) =     -0.00000000
@ B-freq = 0.019034  C-freq = 0.025378     beta(Y;Z,Y) =     -0.00000000
@ B-freq = 0.019034  C-freq = 0.025378     beta(Z;Z,Y) =     43.66905058
@ B-freq = 0.025378  C-freq = 0.025378     beta(X;Z,Y) =     -0.00000000
@ B-freq = 0.025378  C-freq = 0.025378     beta(Y;Z,Y) =     -0.00000000
@ B-freq = 0.025378  C-freq = 0.025378     beta(Z;Z,Y) =     43.75820611
@ B-freq = 0.000000  C-freq = 0.000000     beta(X;X,Z) = beta(Z,X,X)
@ B-freq = 0.000000  C-freq = 0.000000     beta(Y;X,Z) = beta(Z,Y,X)
@ B-freq = 0.000000  C-freq = 0.000000     beta(Z;X,Z) = beta(Z,Z,X)
@ B-freq = 0.006345  C-freq = 0.000000     beta(X;X,Z) = beta(X,Z,X)
@ B-freq = 0.006345  C-freq = 0.000000     beta(Y;X,Z) = beta(Y,Z,X)
@ B-freq = 0.006345  C-freq = 0.000000     beta(Z;X,Z) = beta(Z,Z,X)
@ B-freq = 0.012689  C-freq = 0.000000     beta(X;X,Z) = beta(X,Z,X)
@ B-freq = 0.012689  C-freq = 0.000000     beta(Y;X,Z) = beta(Y,Z,X)
@ B-freq = 0.012689  C-freq = 0.000000     beta(Z;X,Z) = beta(Z,Z,X)
@ B-freq = 0.019034  C-freq = 0.000000     beta(X;X,Z) = beta(X,Z,X)
@ B-freq = 0.019034  C-freq = 0.000000     beta(Y;X,Z) = beta(Y,Z,X)
@ B-freq = 0.019034  C-freq = 0.000000     beta(Z;X,Z) = beta(Z,Z,X)
@ B-freq = 0.025378  C-freq = 0.000000     beta(X;X,Z) = beta(X,Z,X)
@ B-freq = 0.025378  C-freq = 0.000000     beta(Y;X,Z) = beta(Y,Z,X)
@ B-freq = 0.025378  C-freq = 0.000000     beta(Z;X,Z) = beta(Z,Z,X)
@ B-freq = 0.000000  C-freq = 0.000000     beta(X;Y,Z) = beta(Z,Y,X)
@ B-freq = 0.000000  C-freq = 0.000000     beta(Y;Y,Z) = beta(Z,Y,Y)
@ B-freq = 0.000000  C-freq = 0.000000     beta(Z;Y,Z) = beta(Z,Z,Y)
@ B-freq = 0.006345  C-freq = 0.000000     beta(X;Y,Z) = beta(X,Z,Y)
@ B-freq = 0.006345  C-freq = 0.000000     beta(Y;Y,Z) = beta(Y,Z,Y)
@ B-freq = 0.006345  C-freq = 0.000000     beta(Z;Y,Z) = beta(Z,Z,Y)
@ B-freq = 0.012689  C-freq = 0.000000     beta(X;Y,Z) = beta(X,Z,Y)
@ B-freq = 0.012689  C-freq = 0.000000     beta(Y;Y,Z) = beta(Y,Z,Y)
@ B-freq = 0.012689  C-freq = 0.000000     beta(Z;Y,Z) = beta(Z,Z,Y)
@ B-freq = 0.019034  C-freq = 0.000000     beta(X;Y,Z) = beta(X,Z,Y)
@ B-freq = 0.019034  C-freq = 0.000000     beta(Y;Y,Z) = beta(Y,Z,Y)
@ B-freq = 0.019034  C-freq = 0.000000     beta(Z;Y,Z) = beta(Z,Z,Y)
@ B-freq = 0.025378  C-freq = 0.000000     beta(X;Y,Z) = beta(X,Z,Y)
@ B-freq = 0.025378  C-freq = 0.000000     beta(Y;Y,Z) = beta(Y,Z,Y)
@ B-freq = 0.025378  C-freq = 0.000000     beta(Z;Y,Z) = beta(Z,Z,Y)
@ B-freq = 0.000000  C-freq = 0.000000     beta(X;Z,Z) = beta(Z,Z,X)
@ B-freq = 0.000000  C-freq = 0.000000     beta(Y;Z,Z) = beta(Z,Z,Y)
@ B-freq = 0.000000  C-freq = 0.000000     beta(X;Z,Z) =     22.27663224
@ B-freq = 0.000000  C-freq = 0.000000     beta(Y;Z,Z) =     42.79336554
@ B-freq = 0.000000  C-freq = 0.000000     beta(Z;Z,Z) =      0.00000000
@ B-freq = 0.006345  C-freq = 0.000000     beta(X;Z,Z) =     22.29619001
@ B-freq = 0.006345  C-freq = 0.000000     beta(Y;Z,Z) =     42.83394733
@ B-freq = 0.006345  C-freq = 0.000000     beta(Z;Z,Z) =      0.00000000
@ B-freq = 0.012689  C-freq = 0.000000     beta(X;Z,Z) =     22.35498119
@ B-freq = 0.012689  C-freq = 0.000000     beta(Y;Z,Z) =     42.95591592
@ B-freq = 0.012689  C-freq = 0.000000     beta(Z;Z,Z) =      0.00000000
@ B-freq = 0.019034  C-freq = 0.000000     beta(X;Z,Z) =     22.45335354
@ B-freq = 0.019034  C-freq = 0.000000     beta(Y;Z,Z) =     43.15992249
@ B-freq = 0.019034  C-freq = 0.000000     beta(Z;Z,Z) =      0.00000000
@ B-freq = 0.025378  C-freq = 0.000000     beta(X;Z,Z) =     22.59186484
@ B-freq = 0.025378  C-freq = 0.000000     beta(Y;Z,Z) =     43.44698394
@ B-freq = 0.025378  C-freq = 0.000000     beta(Z;Z,Z) =      0.00000000
@ B-freq = 0.000000  C-freq = 0.006345     beta(X;X,Z) = beta(X,Z,X)
@ B-freq = 0.000000  C-freq = 0.006345     beta(Y;X,Z) = beta(Y,Z,X)
@ B-freq = 0.000000  C-freq = 0.006345     beta(Z;X,Z) = beta(Z,Z,X)
@ B-freq = 0.006345  C-freq = 0.006345     beta(X;X,Z) = beta(X,Z,X)
@ B-freq = 0.006345  C-freq = 0.006345     beta(Y;X,Z) = beta(Y,Z,X)
@ B-freq = 0.006345  C-freq = 0.006345     beta(Z;X,Z) = beta(Z,Z,X)
@ B-freq = 0.012689  C-freq = 0.006345     beta(X;X,Z) = beta(X,Z,X)
@ B-freq = 0.012689  C-freq = 0.006345     beta(Y;X,Z) = beta(Y,Z,X)
@ B-freq = 0.012689  C-freq = 0.006345     beta(Z;X,Z) = beta(Z,Z,X)
@ B-freq = 0.019034  C-freq = 0.006345     beta(X;X,Z) = beta(X,Z,X)
@ B-freq = 0.019034  C-freq = 0.006345     beta(Y;X,Z) = beta(Y,Z,X)
@ B-freq = 0.019034  C-freq = 0.006345     beta(Z;X,Z) = beta(Z,Z,X)
@ B-freq = 0.025378  C-freq = 0.006345     beta(X;X,Z) = beta(X,Z,X)
@ B-freq = 0.025378  C-freq = 0.006345     beta(Y;X,Z) = beta(Y,Z,X)
@ B-freq = 0.025378  C-freq = 0.006345     beta(Z;X,Z) = beta(Z,Z,X)
@ B-freq = 0.000000  C-freq = 0.006345     beta(X;Y,Z) = beta(X,Z,Y)
@ B-freq = 0.000000  C-freq = 0.006345     beta(Y;Y,Z) = beta(Y,Z,Y)
@ B-freq = 0.000000  C-freq = 0.006345     beta(Z;Y,Z) = beta(Z,Z,Y)
@ B-freq = 0.006345  C-freq = 0.006345     beta(X;Y,Z) = beta(X,Z,Y)
@ B-freq = 0.006345  C-freq = 0.006345     beta(Y;Y,Z) = beta(Y,Z,Y)
@ B-freq = 0.006345  C-freq = 0.006345     beta(Z;Y,Z) = beta(Z,Z,Y)
@ B-freq = 0.012689  C-freq = 0.006345     beta(X;Y,Z) = beta(X,Z,Y)
@ B-freq = 0.012689  C-freq = 0.006345     beta(Y;Y,Z) = beta(Y,Z,Y)
@ B-freq = 0.012689  C-freq = 0.006345     beta(Z;Y,Z) = beta(Z,Z,Y)
@ B-freq = 0.019034  C-freq = 0.006345     beta(X;Y,Z) = beta(X,Z,Y)
@ B-freq = 0.019034  C-freq = 0.006345     beta(Y;Y,Z) = beta(Y,Z,Y)
@ B-freq = 0.019034  C-freq = 0.006345     beta(Z;Y,Z) = beta(Z,Z,Y)
@ B-freq = 0.025378  C-freq = 0.006345     beta(X;Y,Z) = beta(X,Z,Y)
@ B-freq = 0.025378  C-freq = 0.006345     beta(Y;Y,Z) = beta(Y,Z,Y)
@ B-freq = 0.025378  C-freq = 0.006345     beta(Z;Y,Z) = beta(Z,Z,Y)
@ B-freq = 0.000000  C-freq = 0.006345     beta(X;Z,Z) = beta(X,Z,Z)
@ B-freq = 0.000000  C-freq = 0.006345     beta(Y;Z,Z) = beta(Y,Z,Z)
@ B-freq = 0.000000  C-freq = 0.006345     beta(Z;Z,Z) = beta(Z,Z,Z)
@ B-freq = 0.006345  C-freq = 0.006345     beta(X;Z,Z) =     22.34768399
@ B-freq = 0.006345  C-freq = 0.006345     beta(Y;Z,Z) =     42.94330892
@ B-freq = 0.006345  C-freq = 0.006345     beta(Z;Z,Z) =      0.00000000
@ B-freq = 0.012689  C-freq = 0.006345     beta(X;Z,Z) =     22.43888841
@ B-freq = 0.012689  C-freq = 0.006345     beta(Y;Z,Z) =     43.13514380
@ B-freq = 0.012689  C-freq = 0.006345     beta(Z;Z,Z) =      0.00000000
@ B-freq = 0.019034  C-freq = 0.006345     beta(X;Z,Z) =     22.57049405
@ B-freq = 0.019034  C-freq = 0.006345     beta(Y;Z,Z) =     43.41088015
@ B-freq = 0.019034  C-freq = 0.006345     beta(Z;Z,Z) =      0.00000000
@ B-freq = 0.025378  C-freq = 0.006345     beta(X;Z,Z) =     22.74342300
@ B-freq = 0.025378  C-freq = 0.006345     beta(Y;Z,Z) =     43.77235873
@ B-freq = 0.025378  C-freq = 0.006345     beta(Z;Z,Z) =      0.00000000
@ B-freq = 0.000000  C-freq = 0.012689     beta(X;X,Z) = beta(X,Z,X)
@ B-freq = 0.000000  C-freq = 0.012689     beta(Y;X,Z) = beta(Y,Z,X)
@ B-freq = 0.000000  C-freq = 0.012689     beta(Z;X,Z) = beta(Z,Z,X)
@ B-freq = 0.006345  C-freq = 0.012689     beta(X;X,Z) = beta(X,Z,X)
@ B-freq = 0.006345  C-freq = 0.012689     beta(Y;X,Z) = beta(Y,Z,X)
@ B-freq = 0.006345  C-freq = 0.012689     beta(Z;X,Z) = beta(Z,Z,X)
@ B-freq = 0.012689  C-freq = 0.012689     beta(X;X,Z) = beta(X,Z,X)
@ B-freq = 0.012689  C-freq = 0.012689     beta(Y;X,Z) = beta(Y,Z,X)
@ B-freq = 0.012689  C-freq = 0.012689     beta(Z;X,Z) = beta(Z,Z,X)
@ B-freq = 0.019034  C-freq = 0.012689     beta(X;X,Z) = beta(X,Z,X)
@ B-freq = 0.019034  C-freq = 0.012689     beta(Y;X,Z) = beta(Y,Z,X)
@ B-freq = 0.019034  C-freq = 0.012689     beta(Z;X,Z) = beta(Z,Z,X)
@ B-freq = 0.025378  C-freq = 0.012689     beta(X;X,Z) = beta(X,Z,X)
@ B-freq = 0.025378  C-freq = 0.012689     beta(Y;X,Z) = beta(Y,Z,X)
@ B-freq = 0.025378  C-freq = 0.012689     beta(Z;X,Z) = beta(Z,Z,X)
@ B-freq = 0.000000  C-freq = 0.012689     beta(X;Y,Z) = beta(X,Z,Y)
@ B-freq = 0.000000  C-freq = 0.012689     beta(Y;Y,Z) = beta(Y,Z,Y)
@ B-freq = 0.000000  C-freq = 0.012689     beta(Z;Y,Z) = beta(Z,Z,Y)
@ B-freq = 0.006345  C-freq = 0.012689     beta(X;Y,Z) = beta(X,Z,Y)
@ B-freq = 0.006345  C-freq = 0.012689     beta(Y;Y,Z) = beta(Y,Z,Y)
@ B-freq = 0.006345  C-freq = 0.012689     beta(Z;Y,Z) = beta(Z,Z,Y)
@ B-freq = 0.012689  C-freq = 0.012689     beta(X;Y,Z) = beta(X,Z,Y)
@ B-freq = 0.012689  C-freq = 0.012689     beta(Y;Y,Z) = beta(Y,Z,Y)
@ B-freq = 0.012689  C-freq = 0.012689     beta(Z;Y,Z) = beta(Z,Z,Y)
@ B-freq = 0.019034  C-freq = 0.012689     beta(X;Y,Z) = beta(X,Z,Y)
@ B-freq = 0.019034  C-freq = 0.012689     beta(Y;Y,Z) = beta(Y,Z,Y)
@ B-freq = 0.019034  C-freq = 0.012689     beta(Z;Y,Z) = beta(Z,Z,Y)
@ B-freq = 0.025378  C-freq = 0.012689     beta(X;Y,Z) = beta(X,Z,Y)
@ B-freq = 0.025378  C-freq = 0.012689     beta(Y;Y,Z) = beta(Y,Z,Y)
@ B-freq = 0.025378  C-freq = 0.012689     beta(Z;Y,Z) = beta(Z,Z,Y)
@ B-freq = 0.000000  C-freq = 0.012689     beta(X;Z,Z) = beta(X,Z,Z)
@ B-freq = 0.000000  C-freq = 0.012689     beta(Y;Z,Z) = beta(Y,Z,Z)
@ B-freq = 0.000000  C-freq = 0.012689     beta(Z;Z,Z) = beta(Z,Z,Z)
@ B-freq = 0.006345  C-freq = 0.012689     beta(X;Z,Z) = beta(X,Z,Z)
@ B-freq = 0.006345  C-freq = 0.012689     beta(Y;Z,Z) = beta(Y,Z,Z)
@ B-freq = 0.006345  C-freq = 0.012689     beta(Z;Z,Z) = beta(Z,Z,Z)
@ B-freq = 0.012689  C-freq = 0.012689     beta(X;Z,Z) =     22.56328999
@ B-freq = 0.012689  C-freq = 0.012689     beta(Y;Z,Z) =     43.39863997
@ B-freq = 0.012689  C-freq = 0.012689     beta(Z;Z,Z) =      0.00000000
@ B-freq = 0.019034  C-freq = 0.012689     beta(X;Z,Z) =     22.72923866
@ B-freq = 0.019034  C-freq = 0.012689     beta(Y;Z,Z) =     43.74865490
@ B-freq = 0.019034  C-freq = 0.012689     beta(Z;Z,Z) =      0.00000000
@ B-freq = 0.025378  C-freq = 0.012689     beta(X;Z,Z) =     22.93804815
@ B-freq = 0.025378  C-freq = 0.012689     beta(Y;Z,Z) =     44.18791861
@ B-freq = 0.025378  C-freq = 0.012689     beta(Z;Z,Z) =      0.00000000
@ B-freq = 0.000000  C-freq = 0.019034     beta(X;X,Z) = beta(X,Z,X)
@ B-freq = 0.000000  C-freq = 0.019034     beta(Y;X,Z) = beta(Y,Z,X)
@ B-freq = 0.000000  C-freq = 0.019034     beta(Z;X,Z) = beta(Z,Z,X)
@ B-freq = 0.006345  C-freq = 0.019034     beta(X;X,Z) = beta(X,Z,X)
@ B-freq = 0.006345  C-freq = 0.019034     beta(Y;X,Z) = beta(Y,Z,X)
@ B-freq = 0.006345  C-freq = 0.019034     beta(Z;X,Z) = beta(Z,Z,X)
@ B-freq = 0.012689  C-freq = 0.019034     beta(X;X,Z) = beta(X,Z,X)
@ B-freq = 0.012689  C-freq = 0.019034     beta(Y;X,Z) = beta(Y,Z,X)
@ B-freq = 0.012689  C-freq = 0.019034     beta(Z;X,Z) = beta(Z,Z,X)
@ B-freq = 0.019034  C-freq = 0.019034     beta(X;X,Z) = beta(X,Z,X)
@ B-freq = 0.019034  C-freq = 0.019034     beta(Y;X,Z) = beta(Y,Z,X)
@ B-freq = 0.019034  C-freq = 0.019034     beta(Z;X,Z) = beta(Z,Z,X)
@ B-freq = 0.025378  C-freq = 0.019034     beta(X;X,Z) = beta(X,Z,X)
@ B-freq = 0.025378  C-freq = 0.019034     beta(Y;X,Z) = beta(Y,Z,X)
@ B-freq = 0.025378  C-freq = 0.019034     beta(Z;X,Z) = beta(Z,Z,X)
@ B-freq = 0.000000  C-freq = 0.019034     beta(X;Y,Z) = beta(X,Z,Y)
@ B-freq = 0.000000  C-freq = 0.019034     beta(Y;Y,Z) = beta(Y,Z,Y)
@ B-freq = 0.000000  C-freq = 0.019034     beta(Z;Y,Z) = beta(Z,Z,Y)
@ B-freq = 0.006345  C-freq = 0.019034     beta(X;Y,Z) = beta(X,Z,Y)
@ B-freq = 0.006345  C-freq = 0.019034     beta(Y;Y,Z) = beta(Y,Z,Y)
@ B-freq = 0.006345  C-freq = 0.019034     beta(Z;Y,Z) = beta(Z,Z,Y)
@ B-freq = 0.012689  C-freq = 0.019034     beta(X;Y,Z) = beta(X,Z,Y)
@ B-freq = 0.012689  C-freq = 0.019034     beta(Y;Y,Z) = beta(Y,Z,Y)
@ B-freq = 0.012689  C-freq = 0.019034     beta(Z;Y,Z) = beta(Z,Z,Y)
@ B-freq = 0.019034  C-freq = 0.019034     beta(X;Y,Z) = beta(X,Z,Y)
@ B-freq = 0.019034  C-freq = 0.019034     beta(Y;Y,Z) = beta(Y,Z,Y)
@ B-freq = 0.019034  C-freq = 0.019034     beta(Z;Y,Z) = beta(Z,Z,Y)
@ B-freq = 0.025378  C-freq = 0.019034     beta(X;Y,Z) = beta(X,Z,Y)
@ B-freq = 0.025378  C-freq = 0.019034     beta(Y;Y,Z) = beta(Y,Z,Y)
@ B-freq = 0.025378  C-freq = 0.019034     beta(Z;Y,Z) = beta(Z,Z,Y)
@ B-freq = 0.000000  C-freq = 0.019034     beta(X;Z,Z) = beta(X,Z,Z)
@ B-freq = 0.000000  C-freq = 0.019034     beta(Y;Z,Z) = beta(Y,Z,Z)
@ B-freq = 0.000000  C-freq = 0.019034     beta(Z;Z,Z) = beta(Z,Z,Z)
@ B-freq = 0.006345  C-freq = 0.019034     beta(X;Z,Z) = beta(X,Z,Z)
@ B-freq = 0.006345  C-freq = 0.019034     beta(Y;Z,Z) = beta(Y,Z,Z)
@ B-freq = 0.006345  C-freq = 0.019034     beta(Z;Z,Z) = beta(Z,Z,Z)
@ B-freq = 0.012689  C-freq = 0.019034     beta(X;Z,Z) = beta(X,Z,Z)
@ B-freq = 0.012689  C-freq = 0.019034     beta(Y;Z,Z) = beta(Y,Z,Z)
@ B-freq = 0.012689  C-freq = 0.019034     beta(Z;Z,Z) = beta(Z,Z,Z)
@ B-freq = 0.019034  C-freq = 0.019034     beta(X;Z,Z) =     22.93103043
@ B-freq = 0.019034  C-freq = 0.019034     beta(Y;Z,Z) =     44.17638784
@ B-freq = 0.019034  C-freq = 0.019034     beta(Z;Z,Z) =      0.00000000
@ B-freq = 0.025378  C-freq = 0.019034     beta(X;Z,Z) =     23.17761299
@ B-freq = 0.025378  C-freq = 0.019034     beta(Y;Z,Z) =     44.69779017
@ B-freq = 0.025378  C-freq = 0.019034     beta(Z;Z,Z) =      0.00000000
@ B-freq = 0.000000  C-freq = 0.025378     beta(X;X,Z) = beta(X,Z,X)
@ B-freq = 0.000000  C-freq = 0.025378     beta(Y;X,Z) = beta(Y,Z,X)
@ B-freq = 0.000000  C-freq = 0.025378     beta(Z;X,Z) = beta(Z,Z,X)
@ B-freq = 0.006345  C-freq = 0.025378     beta(X;X,Z) = beta(X,Z,X)
@ B-freq = 0.006345  C-freq = 0.025378     beta(Y;X,Z) = beta(Y,Z,X)
@ B-freq = 0.006345  C-freq = 0.025378     beta(Z;X,Z) = beta(Z,Z,X)
@ B-freq = 0.012689  C-freq = 0.025378     beta(X;X,Z) = beta(X,Z,X)
@ B-freq = 0.012689  C-freq = 0.025378     beta(Y;X,Z) = beta(Y,Z,X)
@ B-freq = 0.012689  C-freq = 0.025378     beta(Z;X,Z) = beta(Z,Z,X)
@ B-freq = 0.019034  C-freq = 0.025378     beta(X;X,Z) = beta(X,Z,X)
@ B-freq = 0.019034  C-freq = 0.025378     beta(Y;X,Z) = beta(Y,Z,X)
@ B-freq = 0.019034  C-freq = 0.025378     beta(Z;X,Z) = beta(Z,Z,X)
@ B-freq = 0.025378  C-freq = 0.025378     beta(X;X,Z) = beta(X,Z,X)
@ B-freq = 0.025378  C-freq = 0.025378     beta(Y;X,Z) = beta(Y,Z,X)
@ B-freq = 0.025378  C-freq = 0.025378     beta(Z;X,Z) = beta(Z,Z,X)
@ B-freq = 0.000000  C-freq = 0.025378     beta(X;Y,Z) = beta(X,Z,Y)
@ B-freq = 0.000000  C-freq = 0.025378     beta(Y;Y,Z) = beta(Y,Z,Y)
@ B-freq = 0.000000  C-freq = 0.025378     beta(Z;Y,Z) = beta(Z,Z,Y)
@ B-freq = 0.006345  C-freq = 0.025378     beta(X;Y,Z) = beta(X,Z,Y)
@ B-freq = 0.006345  C-freq = 0.025378     beta(Y;Y,Z) = beta(Y,Z,Y)
@ B-freq = 0.006345  C-freq = 0.025378     beta(Z;Y,Z) = beta(Z,Z,Y)
@ B-freq = 0.012689  C-freq = 0.025378     beta(X;Y,Z) = beta(X,Z,Y)
@ B-freq = 0.012689  C-freq = 0.025378     beta(Y;Y,Z) = beta(Y,Z,Y)
@ B-freq = 0.012689  C-freq = 0.025378     beta(Z;Y,Z) = beta(Z,Z,Y)
@ B-freq = 0.019034  C-freq = 0.025378     beta(X;Y,Z) = beta(X,Z,Y)
@ B-freq = 0.019034  C-freq = 0.025378     beta(Y;Y,Z) = beta(Y,Z,Y)
@ B-freq = 0.019034  C-freq = 0.025378     beta(Z;Y,Z) = beta(Z,Z,Y)
@ B-freq = 0.025378  C-freq = 0.025378     beta(X;Y,Z) = beta(X,Z,Y)
@ B-freq = 0.025378  C-freq = 0.025378     beta(Y;Y,Z) = beta(Y,Z,Y)
@ B-freq = 0.025378  C-freq = 0.025378     beta(Z;Y,Z) = beta(Z,Z,Y)
@ B-freq = 0.000000  C-freq = 0.025378     beta(X;Z,Z) = beta(X,Z,Z)
@ B-freq = 0.000000  C-freq = 0.025378     beta(Y;Z,Z) = beta(Y,Z,Z)
@ B-freq = 0.000000  C-freq = 0.025378     beta(Z;Z,Z) = beta(Z,Z,Z)
@ B-freq = 0.006345  C-freq = 0.025378     beta(X;Z,Z) = beta(X,Z,Z)
@ B-freq = 0.006345  C-freq = 0.025378     beta(Y;Z,Z) = beta(Y,Z,Z)
@ B-freq = 0.006345  C-freq = 0.025378     beta(Z;Z,Z) = beta(Z,Z,Z)
@ B-freq = 0.012689  C-freq = 0.025378     beta(X;Z,Z) = beta(X,Z,Z)
@ B-freq = 0.012689  C-freq = 0.025378     beta(Y;Z,Z) = beta(Y,Z,Z)
@ B-freq = 0.012689  C-freq = 0.025378     beta(Z;Z,Z) = beta(Z,Z,Z)
@ B-freq = 0.019034  C-freq = 0.025378     beta(X;Z,Z) = beta(X,Z,Z)
@ B-freq = 0.019034  C-freq = 0.025378     beta(Y;Z,Z) = beta(Y,Z,Z)
@ B-freq = 0.019034  C-freq = 0.025378     beta(Z;Z,Z) = beta(Z,Z,Z)
@ B-freq = 0.025378  C-freq = 0.025378     beta(X;Z,Z) =     23.46434243
@ B-freq = 0.025378  C-freq = 0.025378     beta(Y;Z,Z) =     45.30678964
@ B-freq = 0.025378  C-freq = 0.025378     beta(Z;Z,Z) =      0.00000000

  Total CPU  time used in RESPONSE: 31 minutes 31 seconds
  Total wall time used in RESPONSE: 31 minutes 38 seconds


                   .-------------------------------------------.
                   | End of Dynamic Property Section (RESPONS) |
                   `-------------------------------------------'

  Total CPU  time used in DALTON: 33 minutes 23 seconds
  Total wall time used in DALTON: 33 minutes 31 seconds

 
     Date and time (Linux)  : Thu Sep 14 01:46:43 2023
     Host name              : sn-mem                                  
