

     ************************************************************************
     *************** Dalton - An Electronic Structure Program ***************
     ************************************************************************

    This is output from DALTON release Dalton2020.0 (2020)
         ( Web site: http://daltonprogram.org )

   ----------------------------------------------------------------------------

    NOTE:
     
    Dalton is an experimental code for the evaluation of molecular
    properties using (MC)SCF, DFT, CI, and CC wave functions.
    The authors accept no responsibility for the performance of
    the code or for the correctness of the results.
     
    The code (in whole or part) is provided under a licence and
    is not to be reproduced for further distribution without
    the written permission of the authors or their representatives.
     
    See the home page "http://daltonprogram.org" for further information.
     
    If results obtained with this code are published,
    the appropriate citations would be both of:
     
       K. Aidas, C. Angeli, K. L. Bak, V. Bakken, R. Bast,
       L. Boman, O. Christiansen, R. Cimiraglia, S. Coriani,
       P. Dahle, E. K. Dalskov, U. Ekstroem,
       T. Enevoldsen, J. J. Eriksen, P. Ettenhuber, B. Fernandez,
       L. Ferrighi, H. Fliegl, L. Frediani, K. Hald, A. Halkier,
       C. Haettig, H. Heiberg, T. Helgaker, A. C. Hennum,
       H. Hettema, E. Hjertenaes, S. Hoest, I.-M. Hoeyvik,
       M. F. Iozzi, B. Jansik, H. J. Aa. Jensen, D. Jonsson,
       P. Joergensen, J. Kauczor, S. Kirpekar,
       T. Kjaergaard, W. Klopper, S. Knecht, R. Kobayashi, H. Koch,
       J. Kongsted, A. Krapp, K. Kristensen, A. Ligabue,
       O. B. Lutnaes, J. I. Melo, K. V. Mikkelsen, R. H. Myhre,
       C. Neiss, C. B. Nielsen, P. Norman, J. Olsen,
       J. M. H. Olsen, A. Osted, M. J. Packer, F. Pawlowski,
       T. B. Pedersen, P. F. Provasi, S. Reine, Z. Rinkevicius,
       T. A. Ruden, K. Ruud, V. Rybkin, P. Salek, C. C. M. Samson,
       A. Sanchez de Meras, T. Saue, S. P. A. Sauer,
       B. Schimmelpfennig, K. Sneskov, A. H. Steindal,
       K. O. Sylvester-Hvid, P. R. Taylor, A. M. Teale,
       E. I. Tellgren, D. P. Tew, A. J. Thorvaldsen, L. Thoegersen,
       O. Vahtras, M. A. Watson, D. J. D. Wilson, M. Ziolkowski
       and H. Agren,
       "The Dalton quantum chemistry program system",
       WIREs Comput. Mol. Sci. 2014, 4:269–284 (doi: 10.1002/wcms.1172)
     
    and
     
       Dalton, a molecular electronic structure program,
       Release Dalton2020.0 (2020), see http://daltonprogram.org
   ----------------------------------------------------------------------------

    Authors in alphabetical order (Major contribution(s) in parenthesis):

  Kestutis Aidas,           Vilnius University,           Lithuania   (QM/MM)
  Celestino Angeli,         University of Ferrara,        Italy       (NEVPT2)
  Keld L. Bak,              UNI-C,                        Denmark     (AOSOPPA, non-adiabatic coupling, magnetic properties)
  Vebjoern Bakken,          University of Oslo,           Norway      (DALTON; geometry optimizer, symmetry detection)
  Radovan Bast,             UiT The Arctic U. of Norway,  Norway      (DALTON installation and execution frameworks)
  Pablo Baudin,             University of Valencia,       Spain       (Cholesky excitation energies)
  Linus Boman,              NTNU,                         Norway      (Cholesky decomposition and subsystems)
  Bruno N. Cabral Tenorio,  Technical Univ. of Denmark,   Denmark     (Lanczos-based CC methods)
  Ove Christiansen,         Aarhus University,            Denmark     (CC module)
  Renzo Cimiraglia,         University of Ferrara,        Italy       (NEVPT2)
  Sonia Coriani,            Technical Univ. of Denmark,   Denmark     (CC and RESPONS modules)
  Janusz Cukras,            University of Warsaw,         Poland      (MChD in RESPONS)
  Paal Dahle,               University of Oslo,           Norway      (Parallelization)
  Erik K. Dalskov,          UNI-C,                        Denmark     (SOPPA)
  Thomas Enevoldsen,        Univ. of Southern Denmark,    Denmark     (SOPPA)
  Janus J. Eriksen,         Aarhus University,            Denmark     (Polarizable embedding, TDA)
  Rasmus Faber,             Technical Univ. of Denmark,   Denmark     (Vib.avg. NMR w. SOPPA, parallel AO-SOPPA, CVS-CC and EOMCC)
  Tobias Fahleson,          KTH Stockholm,                Sweden      (Damped cubic response)
  Berta Fernandez,          U. of Santiago de Compostela, Spain       (Doublet spin, ESR in RESPONS)
  Lara Ferrighi,            Aarhus University,            Denmark     (PCM Cubic response)
  Heike Fliegl,             University of Oslo,           Norway      (CCSD(R12))
  Luca Frediani,            UiT The Arctic U. of Norway,  Norway      (PCM)
  Emmanuel Fromager,        Univ. Strasbourg,             France      (MC-srDFT)
  Bin Gao,                  UiT The Arctic U. of Norway,  Norway      (Gen1Int library)
  Andre S. P. Gomes,        CNRS/Universite de Lille,     France      (Frozen density embedding)
  Christof Haettig,         Ruhr-University Bochum,       Germany     (CC module)
  Kasper Hald,              Aarhus University,            Denmark     (CC module)
  Asger Halkier,            Aarhus University,            Denmark     (CC module)
  Frederik Beyer Hansen,    University of Copenhagen,     Denmark     (Parallel AO-SOPPA)
  Erik D. Hedegaard,        Univ. of Southern Denmark,    Denmark     (Polarizable embedding, QM/MM, and MC-srDFT)
  Hanne Heiberg,            University of Oslo,           Norway      (Geometry analysis, selected one-electron integrals)
  Trygve Helgaker,          University of Oslo,           Norway      (DALTON; ABACUS, ERI, DFT modules, London, and much more)
  Alf Christian Hennum,     University of Oslo,           Norway      (Parity violation)
  Hinne Hettema,            University of Auckland,       New Zealand (Quadratic response in RESPONS; SIRIUS supersymmetry)
  Eirik Hjertenaes,         NTNU,                         Norway      (Cholesky decomposition)
  Pi A. B. Haase,           University of Copenhagen,     Denmark     (Triplet AO-SOPPA)
  Maria Francesca Iozzi,    University of Oslo,           Norway      (RPA)
  Christoph Jacob           TU Braunschweig               Germany     (Frozen density embedding)
  Brano Jansik              Technical Univ. of Ostrava    Czech Rep.  (DFT cubic response)
  Hans Joergen Aa. Jensen,  Univ. of Southern Denmark,    Denmark     (DALTON; SIRIUS, RESPONS, ABACUS, MC-srDFT, and much more)
  Dan Jonsson,              UiT The Arctic U. of Norway,  Norway      (Cubic response in RESPONS module)
  Poul Joergensen,          Aarhus University,            Denmark     (RESPONS, ABACUS, and CC modules)
  Maciej Kaminski,          University of Warsaw,         Poland      (CPPh in RESPONS)
  Joanna Kauczor,           Linkoeping University,        Sweden      (Complex polarization propagator (CPP) module)
  Sheela Kirpekar,          Univ. of Southern Denmark,    Denmark     (Mass-velocity & Darwin integrals)
  Erik Kjellgren,           Univ. of Southern Denmark,    Denmark     (MC-srDFT)
  Wim Klopper,              KIT Karlsruhe,                Germany     (R12 code in CC, SIRIUS, and ABACUS modules)
  Stefan Knecht,            ETH Zurich,                   Switzerland (Parallel CI and MCSCF, MC-srDFT)
  Rika Kobayashi,           Australian National Univ.,    Australia   (DIIS in CC, London in MCSCF)
  Henrik Koch,              NTNU,                         Norway      (CC module, Cholesky decomposition)
  Jacob Kongsted,           Univ. of Southern Denmark,    Denmark     (Polarizable embedding, polarizable density embedding, QM/MM)
  Andrea Ligabue,           University of Modena,         Italy       (CTOCD, AOSOPPA)
  Nanna H. List             Univ. of Southern Denmark,    Denmark     (Polarizable embedding)
  Ola B. Lutnaes,           University of Oslo,           Norway      (DFT Hessian)
  Juan I. Melo,             University of Buenos Aires,   Argentina   (LRESC, Relativistic Effects on NMR Shieldings)
  Kurt V. Mikkelsen,        University of Copenhagen,     Denmark     (MC-SCRF and QM/MM)
  Rolf H. Myhre,            NTNU,                         Norway      (Subsystems and CC3)
  Christian Neiss,          Univ. Erlangen-Nuernberg,     Germany     (CCSD(R12))
  Christian B. Nielsen,     University of Copenhagen,     Denmark     (QM/MM)
  Patrick Norman,           KTH Stockholm,                Sweden      (Cubic response and complex frequency response in RESPONS)
  Jeppe Olsen,              Aarhus University,            Denmark     (SIRIUS CI/density modules)
  Jogvan Magnus H. Olsen,   Aarhus University,            Denmark     (Polarizable embedding and polarizable density embedding)
  Anders Osted,             Copenhagen University,        Denmark     (QM/MM)
  Martin J. Packer,         University of Sheffield,      UK          (SOPPA)
  Filip Pawlowski,          Kazimierz Wielki University,  Poland      (CC3)
  Morten N. Pedersen,       Univ. of Southern Denmark,    Denmark     (Polarizable embedding)
  Thomas B. Pedersen,       University of Oslo,           Norway      (Cholesky decomposition)
  Patricio F. Provasi,      University of Northeastern,   Argentina   (Analysis of coupling constants in localized orbitals)
  Peter Reinholdt,          Univ. of Southern Denmark,    Denmark     (Polarizable embedding and polarizable density embedding)
  Zilvinas Rinkevicius,     KTH Stockholm,                Sweden      (open-shell DFT, ESR)
  Elias Rudberg,            KTH Stockholm,                Sweden      (DFT grid and basis info)
  Torgeir A. Ruden,         University of Oslo,           Norway      (Numerical derivatives in ABACUS)
  Kenneth Ruud,             UiT The Arctic U. of Norway,  Norway      (DALTON; ABACUS magnetic properties and much more)
  Pawel Salek,              KTH Stockholm,                Sweden      (DALTON; DFT code)
  Claire C. M. Samson       University of Karlsruhe       Germany     (Boys localization, r12 integrals in ERI)
  Alfredo Sanchez de Meras, University of Valencia,       Spain       (CC module, Cholesky decomposition)
  Trond Saue,               Paul Sabatier University,     France      (direct Fock matrix construction)
  Stephan P. A. Sauer,      University of Copenhagen,     Denmark     (SOPPA(CCSD), SOPPA prop., AOSOPPA, vibrational g-factors)
  Bernd Schimmelpfennig,    Forschungszentrum Karlsruhe,  Germany     (AMFI module)
  Anna K. Schnack-Petersen, University of Copenhagen,     Denmark     (RPA(D) and HRPA(D) properties in AOSOPPA)
  Kristian Sneskov,         Aarhus University,            Denmark     (Polarizable embedding, QM/MM)
  Arnfinn H. Steindal,      UiT The Arctic U. of Norway,  Norway      (parallel QM/MM, polarizable embedding)
  Casper Steinmann,         Aalborg University,           Denmark     (QFIT, polarizable embedding)
  K. O. Sylvester-Hvid,     University of Copenhagen,     Denmark     (MC-SCRF)
  Peter R. Taylor,          VLSCI/Univ. of Melbourne,     Australia   (Symmetry handling ABACUS, integral transformation)
  Andrew M. Teale,          University of Nottingham,     England     (DFT-AC, DFT-D)
  David P. Tew,             University of Bristol,        England     (CCSD(R12))
  Julien Toulouse,          Sorbonne Univ.,               France      (MC-srDFT)
  Olav Vahtras,             KTH Stockholm,                Sweden      (Triplet response, spin-orbit, ESR, TDDFT, open-shell DFT)
  Lucas Visscher,           Vrije Universiteit Amsterdam, Netherlands (Frozen density embedding)
  David J. Wilson,          La Trobe University,          Australia   (DFT Hessian and DFT magnetizabilities)
  Hans Agren,               KTH Stockholm,                Sweden      (SIRIUS module, RESPONS, MC-SCRF solvation)
 --------------------------------------------------------------------------------

     Date and time (Linux)  : Sat Jul 27 18:18:53 2024
     Host name              : dn006                                   

 * Work memory size             :    64000000 =  488.28 megabytes.

 * Directories for basis set searches:
   1) /gpfs/projects/rjh/adrian/beta_paper_database/dalton/hf/NOCl/dipole
   2) /gpfs/projects/rjh/adrian/dalton/build/basis


Compilation information
-----------------------

 Who compiled             | ahurtado
 Host                     | sn-mem
 System                   | Linux-3.10.0-1160.81.1.el7.x86_64
 CMake generator          | Unix Makefiles
 Processor                | x86_64
 64-bit integers          | OFF
 MPI                      | ON
 Fortran compiler         | /gpfs/software/intel/oneAPI/2021_4/mpi/2021.4.0/bi
                          | n/mpiifort
 Fortran compiler version | unknown
 C compiler               | /gpfs/software/intel/oneAPI/2021_4/mpi/2021.4.0/bi
                          | n/mpiicc
 C compiler version       | unknown
 C++ compiler             | /gpfs/software/intel/oneAPI/2021_4/mpi/2021.4.0/bi
                          | n/mpiicpc
 C++ compiler version     | unknown
 Static linking           | OFF
 Last Git revision        | 66052b3af5ea7225e31178bf9a8b031913c72190
 Git branch               | (HEAD detached at Dalton2020.0)
 Configuration time       | 2024-05-30 10:57:17.145493

 * MPI parallel run using 38 processes.


   Content of the .dal input file
 ----------------------------------

**DALTON INPUT
.RUN RESPONSE
.DIRECT
**WAVE FUNCTIONS
.HF
**PROPERTIES
**RESPONSE
*QUADRA
.DIPLEN
.FREQUENCIES
5
0.0 0.0063445625 0.012689125 0.0190336875 0.02537825
**END OF DALTON INPUT


   Content of the .mol file
 ----------------------------

BASIS
q-aug-cc-pVDZ
blah
blah
Atomtype=3 Angstrom Charge=0 Nosymmmetry
Charge=17 Atoms=1
Cl_a -0.531200001141 -0.929799999232 0.000000000000
Charge=7 Atoms=1
N_a 0.000000000000 0.972399997674 0.000000000000
Charge=8 Atoms=1
O_a 1.128700001162 1.124999999397 0.000000000000


       *******************************************************************
       *********** Output from DALTON general input processing ***********
       *******************************************************************

 --------------------------------------------------------------------------------
   Overall default print level:    0
   Print level for DALTON.STAT:    1

    Parallel calculation using MPI
    AO-direct calculation (in sections where implemented)
    HERMIT 1- and 2-electron integral sections will be executed
    "Old" integral transformation used (limited to max 255 basis functions)
    Wave function sections will be executed (SIRIUS module)
    Dynamic molecular response properties section will be executed (RESPONSE module)
 --------------------------------------------------------------------------------


   ****************************************************************************
   *************** Output of molecule and basis set information ***************
   ****************************************************************************


    The two title cards from your ".mol" input:
    ------------------------------------------------------------------------
 1: blah                                                                    
 2: blah                                                                    
    ------------------------------------------------------------------------

  Coordinates are entered in Angstrom and converted to atomic units.
          - Conversion factor : 1 bohr = 0.52917721 A

  Atomic type no.    1
  --------------------
  Nuclear charge:  17.00000
  Number of symmetry independent centers:    1
  Number of basis sets to read;    2
  Basis set file used for this atomic type with Z =  17 :
     "/gpfs/projects/rjh/adrian/dalton/build/basis/aug-cc-pVDZ"

  Atomic type no.    2
  --------------------
  Nuclear charge:   7.00000
  Number of symmetry independent centers:    1
  Number of basis sets to read;    2
  Basis set file used for this atomic type with Z =   7 :
     "/gpfs/projects/rjh/adrian/dalton/build/basis/aug-cc-pVDZ"

  Atomic type no.    3
  --------------------
  Nuclear charge:   8.00000
  Number of symmetry independent centers:    1
  Number of basis sets to read;    2
  Basis set file used for this atomic type with Z =   8 :
     "/gpfs/projects/rjh/adrian/dalton/build/basis/aug-cc-pVDZ"


                         SYMGRP: Point group information
                         -------------------------------

@    Point group: C1 


                                 Isotopic Masses
                                 ---------------

                           Cl_a       34.968853
                           N_a        14.003074
                           O_a        15.994915

                       Total mass:    64.966842 amu
                       Natural abundance:  75.308 %

 Center-of-mass coordinates (a.u.):   -0.015184   -0.026271    0.000000
 Center-of-mass coordinates (Angs):   -0.008035   -0.013902    0.000000


  Atoms and basis sets
  --------------------

  Number of atom types :    3
  Total number of atoms:    3

  Basis set used is "q-aug-cc-pVDZ" from the basis set library.

  label    atoms   charge   prim   cont     basis
  ----------------------------------------------------------------------
  Cl          1   17.0000    77    54      [16s12p5d|8s7p5d]                                  
  N_          1    7.0000    62    50      [13s8p5d|7s6p5d]                                   
  O_          1    8.0000    62    50      [13s8p5d|7s6p5d]                                   
  ----------------------------------------------------------------------
  total:      3   32.0000   201   154
  ----------------------------------------------------------------------
  Spherical harmonic basis used.

  Threshold for neglecting AO integrals:  1.00D-12


  Cartesian Coordinates (a.u.)
  ----------------------------

  Total number of coordinates:    9
  Cl_a    :     1  x  -1.0038225198    2  y  -1.7570673496    3  z   0.0000000000
  N_a     :     4  x   0.0000000000    5  y   1.8375696795    6  z   0.0000000000
  O_a     :     7  x   2.1329338795    8  y   2.1259418895    9  z   0.0000000000


   Interatomic separations (in Angstrom):
   --------------------------------------

            Cl_a        N_a         O_a   
            ------      ------      ------
 Cl_a  :    0.000000
 N_a   :    1.974978    0.000000
 O_a   :    2.641490    1.138969    0.000000


  Max    interatomic separation is    2.6415 Angstrom (    4.9917 Bohr)
  between atoms    3 and    1, "O_a   " and "Cl_a  ".

  Min YX interatomic separation is    1.1390 Angstrom (    2.1523 Bohr)


  Bond distances (Angstrom):
  --------------------------

                  atom 1     atom 2       distance
                  ------     ------       --------
  bond distance:  N_a        Cl_a         1.974978
  bond distance:  O_a        N_a          1.138969


  Bond angles (degrees):
  ----------------------

                  atom 1     atom 2     atom 3         angle
                  ------     ------     ------         -----
  bond angle:     Cl_a       N_a        O_a          113.302




 Principal moments of inertia (u*A**2) and principal axes
 --------------------------------------------------------

   IA       5.840433          0.544616    0.838686    0.000000
   IB      88.102929          0.838686   -0.544616    0.000000
   IC      93.943362          0.000000    0.000000    1.000000


 Rotational constants
 --------------------

@    The molecule is planar.

               A                   B                   C

          86531.0810           5736.2339           5379.6138 MHz
            2.886366            0.191340            0.179445 cm-1


@  Nuclear repulsion energy :   85.148419784453 Hartree


                     .---------------------------------------.
                     | Starting in Integral Section (HERMIT) |
                     `---------------------------------------'



 ***************************************************************************************
 ****************** Output from **INTEGRALS input processing (HERMIT) ******************
 ***************************************************************************************


 - Using defaults, no **INTEGRALS input found

 Default print level:        1

 Calculation of one-electron Hamiltonian integrals.

 Center of mass  (bohr):     -0.015183530523     -0.026271029737      0.000000000000
 Operator center (bohr):      0.000000000000      0.000000000000      0.000000000000
 Gauge origin    (bohr):      0.000000000000      0.000000000000      0.000000000000
 Dipole origin   (bohr):      0.000000000000      0.000000000000      0.000000000000


     ************************************************************************
     ************************** Output from HERINT **************************
     ************************************************************************



                      Nuclear contribution to dipole moments
                      --------------------------------------

                 au               Debye          C m (/(10**-30)

      x     -0.00151180        -0.00384261        -0.01281757
      y      0.00037793         0.00096060         0.00320422
      z      0.00000000         0.00000000         0.00000000


  Time used in GABGEN     is       0.11 seconds
  Total CPU  time used in HERMIT:   0.23 seconds
  Total wall time used in HERMIT:   0.24 seconds


                        .----------------------------------.
                        | End of Integral Section (HERMIT) |
                        `----------------------------------'



                   .--------------------------------------------.
                   | Starting in Wave Function Section (SIRIUS) |
                   `--------------------------------------------'


 *** Output from Huckel module :

     Using EWMO model:          T
     Using EHT  model:          F
     Number of Huckel orbitals each symmetry:   24

 EWMO - Energy Weighted Maximum Overlap - is a Huckel type method,
        which normally is better than Extended Huckel Theory.
 Reference: Linderberg and Ohrn, Propagators in Quantum Chemistry (Wiley, 1973)

 Huckel EWMO eigenvalues for symmetry :  1
         -104.883930     -20.685569     -15.673202     -10.608489      -8.072407
           -8.072214      -8.072213      -1.708026      -1.175229      -0.898477
           -0.756044      -0.739435      -0.598849      -0.506247      -0.484719
           -0.442076      -0.370251      -0.309233      -0.187242      -0.055540
           -0.055527      -0.054317      -0.054072      -0.050572

 **********************************************************************
 *SIRIUS* a direct, restricted step, second order MCSCF program       *
 **********************************************************************

 
     Date and time (Linux)  : Sat Jul 27 18:18:53 2024
     Host name              : dn006                                   

 Title lines from ".mol" input file:
     blah                                                                    
     blah                                                                    

 Print level on unit LUPRI =   2 is   0
 Print level on unit LUW4  =   2 is   5

@    Restricted, closed shell Hartree-Fock calculation.

@    Time-dependent Hartree-Fock calculation (random phase approximation).
 Fock matrices are calculated directly and in parallel without use of integrals on disk.

 Initial molecular orbitals are obtained according to
 ".MOSTART EWMO  " input option

     Wave function specification
     ============================
@    Wave function type        --- HF ---
@    Number of closed shell electrons          32
@    Number of electrons in active shells       0
@    Total charge of the molecule               0

@    Spin multiplicity and 2 M_S                1         0
@    Total number of symmetries                 1 (point group: C1 )
@    Reference state symmetry                   1 (irrep name : A  )

     Orbital specifications
     ======================
@    Abelian symmetry species          All |    1
@                                          |  A  
                                       --- |  ---
@    Occupied SCF orbitals              16 |   16
@    Secondary orbitals                138 |  138
@    Total number of orbitals          154 |  154
@    Number of basis functions         154 |  154

     Optimization information
     ========================
@    Number of configurations                 1
@    Number of orbital rotations           2208
     ------------------------------------------
@    Total number of variables             2209

     Maximum number of Fock   iterations      0
     Maximum number of DIIS   iterations     60
     Maximum number of QC-SCF iterations     60
     Threshold for SCF convergence     1.00D-05


 ***********************************************
 ***** DIIS acceleration of SCF iterations *****
 ***********************************************

 C1-DIIS algorithm; max error vectors =    8

 Iter      Total energy        Error norm    Delta(E)  DIIS dim.
 -----------------------------------------------------------------------------
   1  Screening settings (-IFTHRS, JTDIIS, DIFDEN, times)   -8    1    T  2.81D-01  2.82D-01
@  1    -588.333303069        2.57210D+00   -5.88D+02    1
      Virial theorem: -V/T =      2.000873
@    MULPOP   Cl_a   -0.08; N_a     0.65; O_a    -0.56; 
   1  Level shift: doubly occupied orbital energies shifted by -2.00D-01
 -----------------------------------------------------------------------------
   2  Screening settings (-IFTHRS, JTDIIS, DIFDEN, times)   -8    2    T  2.57D-01  2.59D-01
@  2    -588.665443778        1.00445D+00   -3.32D-01    2
      Virial theorem: -V/T =      2.000405
@    MULPOP   Cl_a    0.11; N_a    -0.24; O_a     0.13; 
   2  Level shift: doubly occupied orbital energies shifted by -1.00D-01
 -----------------------------------------------------------------------------
   3  Screening settings (-IFTHRS, JTDIIS, DIFDEN, times)   -8    3    T  2.63D-01  2.65D-01
@  3    -588.718841299        3.67682D-01   -5.34D-02    3
      Virial theorem: -V/T =      2.000303
@    MULPOP   Cl_a    0.03; N_a    -0.09; O_a     0.05; 
   3  Level shift: doubly occupied orbital energies shifted by -5.00D-02
 -----------------------------------------------------------------------------
   4  Screening settings (-IFTHRS, JTDIIS, DIFDEN, times)   -8    4    T  2.62D-01  2.63D-01
@  4    -588.727217339        9.53590D-02   -8.38D-03    4
      Virial theorem: -V/T =      2.000832
@    MULPOP   Cl_a    0.02; N_a    -0.21; O_a     0.18; 
   4  Level shift: doubly occupied orbital energies shifted by -2.50D-02
 -----------------------------------------------------------------------------
   5  Screening settings (-IFTHRS, JTDIIS, DIFDEN, times)  -12    5    F  2.46D-01  2.48D-01
@  5    -588.728269892        3.40960D-02   -1.05D-03    5
      Virial theorem: -V/T =      2.000694
@    MULPOP   Cl_a    0.02; N_a    -0.20; O_a     0.18; 
   5  Level shift: doubly occupied orbital energies shifted by -1.25D-02
 -----------------------------------------------------------------------------
   6  Screening settings (-IFTHRS, JTDIIS, DIFDEN, times)  -12    6    T  2.49D-01  2.50D-01
@  6    -588.728463456        1.53211D-02   -1.94D-04    6
      Virial theorem: -V/T =      2.000683
@    MULPOP   Cl_a    0.01; N_a    -0.20; O_a     0.19; 
 -----------------------------------------------------------------------------
   7  Screening settings (-IFTHRS, JTDIIS, DIFDEN, times)  -12    7    T  2.60D-01  2.61D-01
@  7    -588.728517745        5.12095D-03   -5.43D-05    7
      Virial theorem: -V/T =      2.000698
@    MULPOP   Cl_a    0.01; N_a    -0.20; O_a     0.19; 
 -----------------------------------------------------------------------------
   8  Screening settings (-IFTHRS, JTDIIS, DIFDEN, times)  -12    8    T  2.60D-01  2.61D-01
@  8    -588.728524961        2.15488D-03   -7.22D-06    8
      Virial theorem: -V/T =      2.000689
@    MULPOP   Cl_a    0.01; N_a    -0.20; O_a     0.19; 
 -----------------------------------------------------------------------------
   9  Screening settings (-IFTHRS, JTDIIS, DIFDEN, times)  -12    9    T  2.66D-01  2.67D-01
@  9    -588.728526281        7.65735D-04   -1.32D-06    8
      Virial theorem: -V/T =      2.000689
@    MULPOP   Cl_a    0.01; N_a    -0.20; O_a     0.19; 
 -----------------------------------------------------------------------------
  10  Screening settings (-IFTHRS, JTDIIS, DIFDEN, times)  -12   10    T  2.66D-01  2.67D-01
@ 10    -588.728526455        2.75897D-04   -1.75D-07    8
      Virial theorem: -V/T =      2.000689
@    MULPOP   Cl_a    0.01; N_a    -0.20; O_a     0.19; 
 -----------------------------------------------------------------------------
  11  Screening settings (-IFTHRS, JTDIIS, DIFDEN, times)  -12   11    T  2.68D-01  2.69D-01
@ 11    -588.728526481        9.01444D-05   -2.51D-08    8
      Virial theorem: -V/T =      2.000689
@    MULPOP   Cl_a    0.01; N_a    -0.20; O_a     0.19; 
 -----------------------------------------------------------------------------
  12  Screening settings (-IFTHRS, JTDIIS, DIFDEN, times)  -12   12    T  2.66D-01  2.67D-01
@ 12    -588.728526483        3.18962D-05   -2.36D-09    8
      Virial theorem: -V/T =      2.000689
@    MULPOP   Cl_a    0.01; N_a    -0.20; O_a     0.19; 
 -----------------------------------------------------------------------------
  13  Screening settings (-IFTHRS, JTDIIS, DIFDEN, times)  -12   13    T  2.56D-01  2.58D-01
@ 13    -588.728526483        1.87418D-05   -9.80D-11    8
      Virial theorem: -V/T =      2.000689
@    MULPOP   Cl_a    0.01; N_a    -0.20; O_a     0.19; 
 -----------------------------------------------------------------------------
  14  Screening settings (-IFTHRS, JTDIIS, DIFDEN, times)  -12   14    T  2.74D-01  2.75D-01
@ 14    -588.728526483        4.45803D-06   -4.07D-11    8

@ *** DIIS converged in  14 iterations !
@     Converged SCF energy, gradient:   -588.728526483067    4.46D-06
    - total time used in SIRFCK :              0.00 seconds


 *** SCF orbital energy analysis ***

 Only the 20 lowest virtual orbital energies printed in each symmetry.

 Number of electrons :   32
 Orbital occupations :   16

 Sym       Hartree-Fock orbital energies

1 A    -104.83437438   -20.77065488   -15.86975562   -10.55895737    -8.02604006
         -8.02306582    -8.02290415    -1.69225562    -1.10760738    -0.97268619
         -0.77428711    -0.76640739    -0.72894433    -0.45825345    -0.45794805
         -0.43238919     0.00074401     0.00144673     0.00158136     0.00160363
          0.00334726     0.00347544     0.00350765     0.00379345     0.00450429
          0.00451229     0.00471554     0.00833897     0.00893709     0.00956561
          0.01092471     0.01219058     0.01264814     0.01270634     0.01409042
          0.01461686

    E(LUMO) :     0.00074401 au (symmetry 1)
  - E(HOMO) :    -0.43238919 au (symmetry 1)
  ------------------------------------------
    gap     :     0.43313320 au

 --- Writing SIRIFC interface file

 CPU and wall time for SCF :       3.906       3.945


                       .-----------------------------------.
                       | --- Final results from SIRIUS --- |
                       `-----------------------------------'


@    Spin multiplicity:           1
@    Spatial symmetry:            1 ( irrep  A   in C1  )
@    Total charge of molecule:    0

@    Final HF energy:            -588.728526483067                 
@    Nuclear repulsion:            85.148419784453
@    Electronic energy:          -673.876946267520

@    Final gradient norm:           0.000004458034

 
     Date and time (Linux)  : Sat Jul 27 18:18:57 2024
     Host name              : dn006                                   

File label for MO orbitals:  27Jul24   FOCKDIIS

 (Only coefficients > 0.0100 are printed.)

 Molecular orbitals for symmetry species 1  (A  )
 ------------------------------------------------

    Orbital         7        8        9       10       11       12       13
   3 Cl_a:1s    -0.0001  -0.0348   0.7870   0.4771  -0.1475   0.2738  -0.0000
   4 Cl_a:1s     0.0003   0.0138   0.0009   0.0256  -0.0325   0.0399   0.0000
   5 Cl_a:1s     0.0020  -0.0308  -0.0253  -0.0381  -0.0146   0.0314   0.0000
   6 Cl_a:1s     0.0010  -0.0027  -0.0376  -0.0582   0.1685  -0.0904  -0.0000
   7 Cl_a:1s     0.0027  -0.0311   0.0167  -0.0414   0.0974  -0.0161  -0.0000
   8 Cl_a:1s     0.0006   0.0063   0.0160   0.0113   0.0077  -0.0341  -0.0000
   9 Cl_a:2px   -0.9625   0.0005  -0.0011  -0.0001  -0.0011   0.0008  -0.0000
  10 Cl_a:2py    0.2708   0.0013  -0.0040   0.0010  -0.0018   0.0044   0.0000
  12 Cl_a:2px    0.0030  -0.0090   0.0226  -0.0139   0.1002  -0.0303   0.0000
  13 Cl_a:2py   -0.0009  -0.0183   0.0856  -0.0806   0.1100  -0.2423   0.0000
  14 Cl_a:2pz    0.0000   0.0000  -0.0000   0.0000  -0.0000  -0.0000   0.0905
  15 Cl_a:2px   -0.0021   0.0054  -0.0075   0.0080  -0.0169   0.0088  -0.0000
  16 Cl_a:2py    0.0007   0.0144  -0.0244   0.0250  -0.0380   0.0559  -0.0000
  18 Cl_a:2px   -0.0007  -0.0131  -0.0299  -0.0107  -0.0011   0.0344  -0.0000
  19 Cl_a:2py    0.0010  -0.0152  -0.0312  -0.0358   0.0030  -0.0020   0.0000
  21 Cl_a:2px    0.0036  -0.0070  -0.0114  -0.0211   0.0198   0.0104  -0.0000
  22 Cl_a:2py   -0.0001  -0.0228   0.0003  -0.0057   0.0402   0.0149  -0.0000
  23 Cl_a:2pz    0.0000   0.0000   0.0000   0.0000   0.0000  -0.0000  -0.0226
  24 Cl_a:2px    0.0014   0.0022  -0.0102  -0.0140   0.0181  -0.0001   0.0000
  25 Cl_a:2py    0.0008  -0.0121   0.0128  -0.0030   0.0244  -0.0054   0.0000
  26 Cl_a:2pz    0.0000  -0.0000  -0.0000  -0.0000   0.0000   0.0000  -0.0237
  30 Cl_a:3d2-  -0.0001  -0.0032   0.0080  -0.0029   0.0127  -0.0071  -0.0000
  32 Cl_a:3d0   -0.0000   0.0023  -0.0085   0.0042  -0.0071   0.0122   0.0000
  34 Cl_a:3d2+  -0.0001   0.0026  -0.0134   0.0075  -0.0047   0.0211  -0.0000
  40 Cl_a:3d2-  -0.0010  -0.0025  -0.0107  -0.0036   0.0050   0.0086  -0.0000
  55 N_a :1s     0.0000   0.0033  -0.0002  -0.0111  -0.0037   0.0026  -0.0000
  56 N_a :1s     0.0001  -0.5578   0.3588  -0.6355  -0.1242  -0.3124   0.0000
  57 N_a :1s    -0.0006   0.2023   0.0366   0.0018  -0.0329  -0.1426   0.0000
  58 N_a :1s    -0.0033  -0.0421   0.0179   0.0642  -0.0019   0.0708   0.0000
  59 N_a :1s    -0.0011  -0.1594  -0.0190   0.0179  -0.2799   0.2373   0.0000
  60 N_a :1s     0.0006  -0.0875  -0.0415  -0.0447  -0.0292   0.0841   0.0000
  61 N_a :1s     0.0001  -0.0112   0.0084   0.0026   0.0001  -0.0193  -0.0000
  62 N_a :2px   -0.0001  -0.3003  -0.1420   0.0188   0.2728   0.6337   0.0000
  63 N_a :2py    0.0000  -0.0286  -0.1410  -0.0822  -0.4520   0.1504  -0.0000
  64 N_a :2pz    0.0000   0.0000   0.0000   0.0000  -0.0000   0.0000   0.5622
  65 N_a :2px   -0.0002   0.1627   0.0342  -0.0158  -0.0665  -0.0960  -0.0000
  66 N_a :2py    0.0002   0.0350  -0.0113   0.0188   0.0422  -0.0041   0.0000
  67 N_a :2pz   -0.0000  -0.0000  -0.0000  -0.0000   0.0000  -0.0000  -0.0689
  68 N_a :2px    0.0034   0.0126  -0.0180   0.0324   0.0356   0.0218   0.0000
  69 N_a :2py   -0.0015  -0.0374  -0.0783  -0.0480  -0.1324   0.0819  -0.0000
  70 N_a :2pz    0.0000   0.0000   0.0000   0.0000  -0.0000  -0.0000   0.1522
  71 N_a :2px   -0.0026   0.0008  -0.0045   0.0476  -0.0248   0.0026  -0.0000
  72 N_a :2py    0.0000  -0.0050  -0.0019  -0.0489  -0.0925  -0.0063  -0.0000
  73 N_a :2pz    0.0000  -0.0000  -0.0000   0.0000  -0.0000   0.0000   0.0938
  74 N_a :2px   -0.0003   0.0064  -0.0036   0.0335  -0.0393   0.0004  -0.0000
  75 N_a :2py   -0.0019   0.0081  -0.0134   0.0112  -0.0574   0.0074  -0.0000
  76 N_a :2pz    0.0000   0.0000   0.0000   0.0000  -0.0000  -0.0000   0.0355
  78 N_a :2py   -0.0001  -0.0041  -0.0050  -0.0028  -0.0052   0.0108   0.0000
  80 N_a :3d2-  -0.0000  -0.0057  -0.0019  -0.0034  -0.0401   0.0102  -0.0000
  82 N_a :3d0    0.0000   0.0174  -0.0019   0.0003  -0.0078  -0.0138  -0.0000
  83 N_a :3d1+  -0.0000   0.0000   0.0000   0.0000  -0.0000   0.0000   0.0492
  84 N_a :3d2+  -0.0000  -0.0309  -0.0156  -0.0037   0.0124   0.0315   0.0000
  85 N_a :3d2-   0.0002   0.0059   0.0020  -0.0014   0.0131  -0.0162   0.0000
  89 N_a :3d2+   0.0000   0.0220  -0.0134  -0.0107  -0.0202   0.0246  -0.0000
  90 N_a :3d2-  -0.0024  -0.0032  -0.0406   0.0023  -0.0437   0.0451   0.0000
  91 N_a :3d1-  -0.0000  -0.0000  -0.0000  -0.0000   0.0000   0.0000   0.0164
  92 N_a :3d0    0.0003  -0.0087   0.0179  -0.0116  -0.0006  -0.0110  -0.0000
  93 N_a :3d1+   0.0000   0.0000   0.0000   0.0000   0.0000  -0.0000   0.0605
  94 N_a :3d2+   0.0004  -0.0009   0.0024   0.0095   0.0267   0.0046   0.0000
  95 N_a :3d2-   0.0010  -0.0079  -0.0008  -0.0108  -0.0204   0.0177   0.0000
  97 N_a :3d0   -0.0002   0.0051   0.0005   0.0008   0.0079  -0.0136  -0.0000
 104 N_a :3d2+  -0.0001   0.0072  -0.0084   0.0054  -0.0110   0.0022  -0.0000
 106 O_a :1s    -0.0001  -0.7266  -0.3084   0.5216  -0.0451  -0.1312  -0.0000
 107 O_a :1s     0.0002   0.0223  -0.0266   0.1229  -0.0033  -0.1035  -0.0000
 108 O_a :1s     0.0007   0.0515   0.0235   0.0058  -0.0256  -0.1369  -0.0000
 109 O_a :1s    -0.0002   0.1884   0.0421   0.0288   0.1141  -0.1709  -0.0000
 110 O_a :1s    -0.0035   0.1247   0.0256   0.0846  -0.0499  -0.0665   0.0000
 111 O_a :1s    -0.0004   0.0112  -0.0187  -0.0084  -0.0034   0.0415   0.0000
 112 O_a :2px    0.0000   0.2519  -0.0918   0.4481  -0.0495  -0.5808   0.0000
 113 O_a :2py    0.0000   0.0360  -0.0740   0.0073  -0.7417   0.0962  -0.0000
 114 O_a :2pz   -0.0000   0.0000   0.0000   0.0000  -0.0000   0.0000   0.6973
 115 O_a :2px   -0.0003  -0.0341   0.0262  -0.0871   0.0045   0.0681   0.0000
 116 O_a :2py   -0.0003  -0.0092   0.0165  -0.0070   0.0200   0.0152   0.0000
 118 O_a :2px   -0.0017  -0.0674   0.0130  -0.0243  -0.0400   0.0114   0.0000
 119 O_a :2py    0.0022   0.0045   0.0797   0.0178   0.1262  -0.0731  -0.0000
 120 O_a :2pz   -0.0000  -0.0000   0.0000   0.0000  -0.0000   0.0000  -0.1430
 121 O_a :2px   -0.0007  -0.0469   0.0069  -0.0479   0.0034   0.0142   0.0000
 122 O_a :2py    0.0009   0.0181  -0.0050   0.0350   0.1489  -0.0447   0.0000
 123 O_a :2pz   -0.0000  -0.0000  -0.0000  -0.0000   0.0000  -0.0000  -0.0826
 124 O_a :2px   -0.0006  -0.0255   0.0134  -0.0345   0.0349   0.0045  -0.0000
 125 O_a :2py    0.0018  -0.0018   0.0054  -0.0152   0.0555  -0.0083  -0.0000
 126 O_a :2pz   -0.0000  -0.0000  -0.0000  -0.0000  -0.0000   0.0000  -0.0153
 128 O_a :2py    0.0001   0.0030   0.0070   0.0024   0.0077  -0.0116  -0.0000
 130 O_a :3d2-  -0.0000  -0.0055   0.0050  -0.0019   0.0256  -0.0005  -0.0000
 132 O_a :3d0   -0.0000   0.0105  -0.0021   0.0074  -0.0031  -0.0084  -0.0000
 133 O_a :3d1+  -0.0000  -0.0000  -0.0000  -0.0000   0.0000   0.0000  -0.0305
 134 O_a :3d2+   0.0000  -0.0174   0.0021  -0.0150  -0.0021   0.0161  -0.0000
 135 O_a :3d2-   0.0002  -0.0003   0.0008   0.0005   0.0291  -0.0088  -0.0000
 138 O_a :3d1+   0.0000   0.0000   0.0000  -0.0000   0.0000  -0.0000  -0.0426
 140 O_a :3d2-   0.0000   0.0021  -0.0195  -0.0039  -0.0250   0.0161   0.0000
 143 O_a :3d1+   0.0000   0.0000   0.0000  -0.0000   0.0000  -0.0000   0.0307
 144 O_a :3d2+   0.0000   0.0136  -0.0059   0.0050   0.0179   0.0064  -0.0000
 145 O_a :3d2-  -0.0005  -0.0011  -0.0065  -0.0026  -0.0296   0.0083   0.0000
 148 O_a :3d1+   0.0000   0.0000   0.0000   0.0000   0.0000  -0.0000   0.0243

    Orbital        14       15       16       17       18       19       20
   3 Cl_a:1s    -0.0000   0.0119   0.0198  -0.0036   0.0021   0.0000  -0.0011
   4 Cl_a:1s     0.0000   0.0054   0.0311  -0.0014  -0.0008   0.0000  -0.0021
   5 Cl_a:1s    -0.0000   0.0093  -0.1770   0.0329  -0.0057   0.0000   0.0400
   6 Cl_a:1s    -0.0000   0.0576  -0.2308   0.1650  -0.2599  -0.0000   0.2745
   7 Cl_a:1s    -0.0000   0.0733  -0.1529   0.3877  -1.5857   0.0000   0.8555
   8 Cl_a:1s     0.0000   0.0068  -0.0813   4.9325 -13.7913   0.0000   4.9319
  12 Cl_a:2px    0.0000  -0.9522  -0.0272   0.0005  -0.0008   0.0000  -0.0015
  13 Cl_a:2py   -0.0000   0.1362  -0.7301   0.0056  -0.0007  -0.0000  -0.0005
  14 Cl_a:2pz    0.9500   0.0000  -0.0000   0.0000   0.0000   0.0015   0.0000
  15 Cl_a:2px   -0.0000  -0.0101   0.0167   0.0002   0.0002  -0.0000   0.0002
  16 Cl_a:2py    0.0000   0.0036   0.0104   0.0022   0.0006   0.0000   0.0014
  17 Cl_a:2pz    0.0155  -0.0000   0.0000  -0.0000  -0.0000   0.0002  -0.0000
  18 Cl_a:2px    0.0000  -0.0858  -0.0135   0.0159  -0.0002   0.0000   0.0072
  19 Cl_a:2py   -0.0000   0.0223  -0.1307   0.0319  -0.0189   0.0000   0.0311
  20 Cl_a:2pz    0.0522   0.0000  -0.0000  -0.0000   0.0000   0.0028   0.0000
  21 Cl_a:2px   -0.0000   0.0496  -0.0184   0.0618   0.0872  -0.0000   0.0548
  22 Cl_a:2py   -0.0000   0.0072  -0.0793   0.1524  -0.2543   0.0000   0.0957
  23 Cl_a:2pz   -0.0373  -0.0000  -0.0000   0.0000  -0.0000  -0.0181  -0.0000
  24 Cl_a:2px   -0.0000   0.0241  -0.0133  -0.3471   0.9134  -0.0000   0.5325
  25 Cl_a:2py   -0.0000   0.0098  -0.0419   0.3565  -0.8692  -0.0000  -0.1911
  26 Cl_a:2pz   -0.0263   0.0000  -0.0000  -0.0000   0.0000  -0.9755   0.0000
  27 Cl_a:2px    0.0000  -0.0011  -0.0146   1.1140  -7.4660   0.0000   0.4818
  28 Cl_a:2py    0.0000   0.0002  -0.0020  -0.3105  -1.9303   0.0000   2.5339
  29 Cl_a:2pz    0.0044   0.0000  -0.0000   0.0000  -0.0000   2.6152   0.0000
  30 Cl_a:3d2-   0.0000  -0.0078  -0.0148  -0.0002  -0.0001   0.0000   0.0001
  32 Cl_a:3d0   -0.0000   0.0022   0.0108   0.0004  -0.0000  -0.0000   0.0000
  34 Cl_a:3d2+   0.0000   0.0012   0.0191   0.0006  -0.0000   0.0000  -0.0001
  36 Cl_a:3d1-   0.0112   0.0000   0.0000  -0.0000   0.0000   0.0003   0.0000
  40 Cl_a:3d2-   0.0000  -0.0195  -0.0051   0.0021  -0.0013   0.0000   0.0021
  44 Cl_a:3d2+   0.0000  -0.0103   0.0132  -0.0024   0.0023   0.0000  -0.0034
  45 Cl_a:3d2-  -0.0000   0.0027  -0.0055   0.0158   0.0027  -0.0000  -0.0031
  47 Cl_a:3d0    0.0000  -0.0002   0.0081  -0.0132   0.0124   0.0000  -0.0110
  49 Cl_a:3d2+  -0.0000  -0.0012   0.0067  -0.0049   0.0180  -0.0000   0.0003
  50 Cl_a:3d2-  -0.0000   0.0074  -0.0004  -0.0068   0.0281  -0.0000   0.0852
  51 Cl_a:3d1-  -0.0051  -0.0000  -0.0000   0.0000  -0.0000  -0.0588  -0.0000
  52 Cl_a:3d0    0.0000  -0.0027   0.0054  -0.0047   0.0195  -0.0000   0.0515
  53 Cl_a:3d1+   0.0018  -0.0000  -0.0000   0.0000  -0.0000   0.0841  -0.0000
  54 Cl_a:3d2+   0.0000   0.0057   0.0044  -0.0717   0.0837   0.0000  -0.0564
  55 N_a :1s     0.0000   0.0037   0.0119  -0.0004  -0.0001   0.0000  -0.0000
  56 N_a :1s     0.0000   0.0078   0.2581  -0.0068   0.0005  -0.0000   0.0007
  57 N_a :1s    -0.0000  -0.0521   0.0764   0.0025   0.0060  -0.0000   0.0020
  58 N_a :1s    -0.0000  -0.0605   0.3492   0.0238   0.0824  -0.0000  -0.0248
  59 N_a :1s     0.0000  -0.1520   0.3162   0.2172   0.9825  -0.0000  -0.2538
  60 N_a :1s    -0.0000  -0.0089   0.1067   1.0397   5.3864  -0.0000   0.1505
  61 N_a :1s     0.0000   0.0000  -0.0584  14.4647 -22.5967   0.0000  12.4823
  62 N_a :2px   -0.0000   0.0279  -0.2272   0.0057  -0.0006  -0.0000   0.0003
  63 N_a :2py    0.0000   0.0144   0.3406   0.0017   0.0009   0.0000  -0.0016
  65 N_a :2px   -0.0000  -0.0437   0.0602   0.0042   0.0030  -0.0000   0.0008
  66 N_a :2py    0.0000   0.0425   0.1218   0.0019   0.0012   0.0000   0.0002
  67 N_a :2pz    0.0286   0.0000  -0.0000  -0.0000   0.0000   0.0002   0.0000
  68 N_a :2px   -0.0000   0.0288  -0.1144   0.0428  -0.0142  -0.0000   0.0156
  69 N_a :2py    0.0000  -0.0302   0.0145   0.0438  -0.0126   0.0000   0.0260
  71 N_a :2px    0.0000  -0.0757  -0.0031   0.1265  -0.2475   0.0000  -0.0961
  72 N_a :2py    0.0000   0.0112   0.0875  -0.0168   0.0314   0.0000  -0.0216
  73 N_a :2pz    0.0259   0.0000   0.0000  -0.0000   0.0000   0.1488   0.0000
  74 N_a :2px    0.0000  -0.0219   0.0102   1.3126  -1.7453  -0.0000   0.7097
  75 N_a :2py    0.0000  -0.0381   0.0391   1.2828  -0.7151   0.0000   0.4174
  76 N_a :2pz   -0.0040  -0.0000   0.0000   0.0000  -0.0000   0.0663  -0.0000
  77 N_a :2px   -0.0000   0.0003   0.0137  -1.8626  10.4077  -0.0000   1.6305
  78 N_a :2py   -0.0000  -0.0026   0.0179  -0.3172  11.2573  -0.0000  -6.6220
  79 N_a :2pz   -0.0016   0.0000   0.0000  -0.0000   0.0000  -5.8235   0.0000
  80 N_a :3d2-  -0.0000  -0.0012  -0.0238  -0.0002   0.0000  -0.0000   0.0000
  82 N_a :3d0    0.0000   0.0001   0.0148  -0.0000  -0.0001   0.0000   0.0000
  83 N_a :3d1+  -0.0111  -0.0000  -0.0000   0.0000  -0.0000   0.0001  -0.0000
  84 N_a :3d2+  -0.0000   0.0118   0.0149   0.0001   0.0001  -0.0000  -0.0000
  85 N_a :3d2-   0.0000   0.0339   0.0108  -0.0001   0.0003   0.0000   0.0000
  86 N_a :3d1-  -0.0188  -0.0000  -0.0000   0.0000  -0.0000  -0.0002  -0.0000
  87 N_a :3d0    0.0000   0.0063   0.0128   0.0000  -0.0000   0.0000   0.0002
  89 N_a :3d2+  -0.0000   0.0047   0.0472   0.0005   0.0004  -0.0000   0.0003
  90 N_a :3d2-   0.0000  -0.0443   0.0422   0.0061  -0.0005   0.0000  -0.0018
  91 N_a :3d1-   0.0166   0.0000  -0.0000  -0.0000   0.0000   0.0020   0.0000
  92 N_a :3d0   -0.0000   0.0049  -0.0126  -0.0015   0.0014   0.0000   0.0010
  94 N_a :3d2+   0.0000  -0.0042  -0.0563   0.0084  -0.0060   0.0000   0.0057
  95 N_a :3d2-   0.0000   0.0095   0.0232   0.0005   0.0288   0.0000  -0.0119
  96 N_a :3d1-  -0.0065  -0.0000  -0.0000   0.0000  -0.0000  -0.0111  -0.0000
  97 N_a :3d0   -0.0000   0.0054  -0.0040  -0.0093   0.0096  -0.0000   0.0201
  98 N_a :3d1+   0.0016   0.0000   0.0000   0.0000  -0.0000   0.0193  -0.0000
 100 N_a :3d2-  -0.0000  -0.0064  -0.0016   0.1279   0.0877  -0.0000   0.0547
 101 N_a :3d1-  -0.0088   0.0000   0.0000  -0.0000   0.0000  -0.2288   0.0000
 102 N_a :3d0    0.0000   0.0002   0.0047  -0.0502   0.0419   0.0000  -0.1087
 103 N_a :3d1+  -0.0080   0.0000   0.0000  -0.0000   0.0000  -0.2950   0.0000
 104 N_a :3d2+  -0.0000  -0.0029   0.0085   0.0530   0.0068  -0.0000   0.3411
 106 O_a :1s    -0.0000   0.0293  -0.0280  -0.0059   0.0004   0.0000  -0.0011
 107 O_a :1s     0.0000   0.0282  -0.0558  -0.0049  -0.0015   0.0000  -0.0009
 108 O_a :1s     0.0000   0.0507  -0.0416  -0.0690  -0.0154   0.0000  -0.0139
 109 O_a :1s     0.0000   0.0993  -0.0777  -0.4439  -0.3208   0.0000  -0.0076
 110 O_a :1s     0.0000  -0.0565   0.0341  -1.7658  -2.1481   0.0000  -1.4044
 111 O_a :1s    -0.0000  -0.0031   0.1140 -18.1957  34.1995  -0.0000 -17.2301
 112 O_a :2px   -0.0000  -0.0234   0.1330  -0.0039   0.0003  -0.0000  -0.0006
 113 O_a :2py   -0.0000  -0.1773  -0.4913  -0.0038  -0.0006   0.0000   0.0012
 114 O_a :2pz   -0.1705  -0.0000   0.0000   0.0000   0.0000   0.0006  -0.0000
 115 O_a :2px   -0.0000  -0.0082   0.0264   0.0026   0.0020  -0.0000   0.0006
 116 O_a :2py   -0.0000  -0.0419  -0.0660  -0.0001  -0.0001  -0.0000   0.0002
 117 O_a :2pz   -0.0185   0.0000  -0.0000  -0.0000  -0.0000  -0.0000   0.0000
 118 O_a :2px   -0.0000  -0.0147   0.1061   0.0093   0.0290  -0.0000  -0.0008
 119 O_a :2py   -0.0000   0.0110  -0.1432  -0.0123   0.0048  -0.0000  -0.0001
 120 O_a :2pz   -0.0272  -0.0000   0.0000   0.0000   0.0000  -0.0049   0.0000
 121 O_a :2px   -0.0000   0.0243   0.0077   0.0356   0.2237  -0.0000   0.1071
 122 O_a :2py   -0.0000   0.0113  -0.1194   0.0477  -0.0225  -0.0000   0.0988
 123 O_a :2pz    0.0066  -0.0000  -0.0000   0.0000   0.0000  -0.1190   0.0000
 124 O_a :2px    0.0000   0.0091  -0.0118  -0.4517   0.8245   0.0000  -0.6742
 125 O_a :2py   -0.0000   0.0454  -0.0330  -1.1374   0.6876   0.0000   0.1161
 126 O_a :2pz    0.0333   0.0000  -0.0000  -0.0000   0.0000   0.7063   0.0000
 127 O_a :2px    0.0000   0.0007  -0.0087   2.2883  -5.5036   0.0000  -0.2236
 128 O_a :2py    0.0000   0.0034  -0.0232   1.5461 -10.7904   0.0000   4.3378
 129 O_a :2pz   -0.0018  -0.0000  -0.0000   0.0000  -0.0000   2.5224  -0.0000
 135 O_a :3d2-   0.0000   0.0169   0.0191  -0.0003   0.0001   0.0000  -0.0001
 140 O_a :3d2-   0.0000   0.0078   0.0193   0.0022  -0.0022   0.0000   0.0007
 142 O_a :3d0   -0.0000  -0.0051   0.0155  -0.0005   0.0030  -0.0000  -0.0005
 144 O_a :3d2+   0.0000  -0.0030  -0.0163   0.0003  -0.0036   0.0000  -0.0001
 145 O_a :3d2-   0.0000  -0.0102   0.0141   0.0018  -0.0038   0.0000  -0.0070
 147 O_a :3d0   -0.0000   0.0017   0.0072   0.0024   0.0108   0.0000   0.0034
 149 O_a :3d2+   0.0000  -0.0044  -0.0085   0.0066  -0.0160   0.0000   0.0014
 150 O_a :3d2-   0.0000   0.0035   0.0046  -0.0084  -0.0382   0.0000  -0.0722
 151 O_a :3d1-   0.0045  -0.0000  -0.0000   0.0000  -0.0000   0.1105  -0.0000
 152 O_a :3d0   -0.0000   0.0018  -0.0061  -0.0191   0.0219   0.0000   0.0064
 153 O_a :3d1+  -0.0017  -0.0000   0.0000   0.0000  -0.0000   0.0638  -0.0000
 154 O_a :3d2+  -0.0000   0.0013  -0.0055  -0.0048  -0.0141  -0.0000  -0.0965

    Orbital        21       22       23       24       25       26
   5 Cl_a:1s    -0.0155   0.0404   0.0000   0.0866  -0.0000  -0.0211
   6 Cl_a:1s    -0.5430   0.3288   0.0000   0.2349   0.0000  -0.6738
   7 Cl_a:1s    -0.8350   2.0628  -0.0000   0.9556  -0.0000  -3.7745
   8 Cl_a:1s   -16.0787   2.8624   0.0000   7.8840  -0.0000 -25.4005
  18 Cl_a:2px   -0.0290   0.0216  -0.0000   0.0177  -0.0000   0.0118
  19 Cl_a:2py   -0.0215   0.0430   0.0000   0.0764  -0.0000  -0.0376
  20 Cl_a:2pz   -0.0000  -0.0000  -0.0120   0.0000  -0.0171  -0.0000
  21 Cl_a:2px   -0.2431   0.4747   0.0000  -0.1059   0.0000   0.3250
  22 Cl_a:2py   -0.1967   0.3723   0.0000   0.4171  -0.0000  -0.4292
  23 Cl_a:2pz    0.0000   0.0000  -0.4196  -0.0000  -0.2536   0.0000
  24 Cl_a:2px   -0.6172   2.6187   0.0000  -1.8933   0.0000   2.0113
  25 Cl_a:2py    0.0345   2.7379   0.0000   1.3736   0.0000  -1.4177
  26 Cl_a:2pz   -0.0000  -0.0000  -2.7578   0.0000  -1.8607  -0.0000
  27 Cl_a:2px    0.1331  -0.1049   0.0000   5.0951  -0.0000 -13.3734
  28 Cl_a:2py   -1.6669  -4.7198   0.0000  -2.2197  -0.0000  -3.1937
  29 Cl_a:2pz    0.0000  -0.0000   5.4369  -0.0000   5.3234   0.0000
  45 Cl_a:3d2-  -0.0336   0.0371   0.0000   0.0152   0.0000   0.0261
  46 Cl_a:3d1-   0.0000   0.0000  -0.0439  -0.0000  -0.0151   0.0000
  47 Cl_a:3d0    0.0129  -0.0234  -0.0000  -0.0294   0.0000   0.0115
  48 Cl_a:3d1+  -0.0000   0.0000  -0.0033  -0.0000  -0.0151  -0.0000
  49 Cl_a:3d2+  -0.0206   0.0029   0.0000  -0.0411   0.0000   0.0383
  50 Cl_a:3d2-  -0.0415   0.1460   0.0000  -0.1223   0.0000   0.1085
  51 Cl_a:3d1-   0.0000   0.0000  -0.1663  -0.0000  -0.1531  -0.0000
  52 Cl_a:3d0   -0.0705  -0.1441   0.0000  -0.0627  -0.0000   0.0200
  53 Cl_a:3d1+   0.0000   0.0000   0.0084  -0.0000   0.1741   0.0000
  54 Cl_a:3d2+   0.1993  -0.0434  -0.0000  -0.1210  -0.0000   0.1016
  57 N_a :1s     0.0029  -0.0058   0.0000   0.0164   0.0000   0.0119
  58 N_a :1s     0.0872  -0.1510   0.0000   0.0577   0.0000   0.1749
  59 N_a :1s     1.1029  -1.1454  -0.0000   0.7540   0.0000   2.2015
  60 N_a :1s     4.6629  -1.9963  -0.0000   3.0907   0.0000  11.5425
  61 N_a :1s   -21.5648  -5.3370   0.0000  23.7834  -0.0000 -35.5171
  68 N_a :2px    0.0038  -0.0264   0.0000   0.0830   0.0000  -0.0248
  69 N_a :2py   -0.0435  -0.0205  -0.0000   0.0852  -0.0000  -0.0249
  70 N_a :2pz   -0.0000   0.0000   0.0191  -0.0000  -0.0213   0.0000
  71 N_a :2px   -0.1162  -0.5546   0.0000   0.2778  -0.0000  -0.6029
  72 N_a :2py    0.0366  -0.5487  -0.0000  -0.0101  -0.0000  -0.0864
  73 N_a :2pz   -0.0000  -0.0000   0.3908   0.0000  -0.0012   0.0000
  74 N_a :2px   -2.4535  -3.3751   0.0000   1.6851  -0.0000  -2.7210
  75 N_a :2py   -4.6388  -3.8483   0.0000   1.8666  -0.0000  -0.5242
  76 N_a :2pz   -0.0000   0.0000   1.8026  -0.0000  -2.6768   0.0000
  77 N_a :2px    8.2917  -1.2485  -0.0000  -2.3589   0.0000  14.2402
  78 N_a :2py    2.3763  -4.8482  -0.0000   0.6069   0.0000  17.2071
  79 N_a :2pz   -0.0000  -0.0000   4.1096   0.0000  -9.7380  -0.0000
  90 N_a :3d2-  -0.0141  -0.0122  -0.0000   0.0030  -0.0000   0.0031
  94 N_a :3d2+  -0.0036   0.0039  -0.0000   0.0188  -0.0000  -0.0106
  95 N_a :3d2-   0.0125   0.0002  -0.0000  -0.0122  -0.0000   0.0791
  96 N_a :3d1-   0.0000   0.0000  -0.0825  -0.0000  -0.0797   0.0000
  97 N_a :3d0    0.0140  -0.0130   0.0000  -0.0265   0.0000   0.0072
  98 N_a :3d1+   0.0000   0.0000  -0.0279  -0.0000  -0.0235   0.0000
  99 N_a :3d2+  -0.0543  -0.0683   0.0000  -0.0652   0.0000  -0.0269
 100 N_a :3d2-  -0.6916   0.2759   0.0000   0.0280   0.0000   0.3208
 101 N_a :3d1-  -0.0000  -0.0000  -0.5122   0.0000  -0.4068  -0.0000
 102 N_a :3d0    0.1738  -0.2134  -0.0000   0.0028  -0.0000   0.0325
 103 N_a :3d1+  -0.0000  -0.0000  -0.1770   0.0000  -0.8132  -0.0000
 104 N_a :3d2+  -0.5253  -0.4750   0.0000  -0.3231   0.0000   0.0937
 108 O_a :1s    -0.0277   0.0748  -0.0000  -0.1115  -0.0000  -0.0422
 109 O_a :1s    -0.1907   0.4718   0.0000  -0.9906  -0.0000  -0.8045
 110 O_a :1s    -1.6254  -1.4750  -0.0000  -4.0661  -0.0000  -4.8359
 111 O_a :1s    35.0151   4.4178  -0.0000 -31.9350   0.0000  57.5858
 118 O_a :2px    0.0213  -0.0278   0.0000   0.0308   0.0000   0.0606
 119 O_a :2py    0.0253   0.0289   0.0000  -0.0078   0.0000   0.0088
 120 O_a :2pz    0.0000  -0.0000  -0.0131  -0.0000   0.0204  -0.0000
 121 O_a :2px    0.2836   0.0942  -0.0000   0.2623   0.0000   0.4779
 122 O_a :2py   -0.1832   0.4622   0.0000  -0.0708   0.0000  -0.0103
 123 O_a :2pz    0.0000  -0.0000  -0.0123  -0.0000   0.1694  -0.0000
 124 O_a :2px    2.8958   1.1336  -0.0000   1.1307  -0.0000   0.8314
 125 O_a :2py    3.5549   1.8519  -0.0000  -2.3704  -0.0000   0.2055
 126 O_a :2pz    0.0000  -0.0000   0.9684   0.0000   3.9105  -0.0000
 127 O_a :2px  -11.4907   1.1761   0.0000  -0.1152  -0.0000  -6.6333
 128 O_a :2py   -2.5507   9.8450   0.0000   2.2596  -0.0000 -17.9739
 129 O_a :2pz    0.0000   0.0000  -9.5022  -0.0000   5.5858   0.0000
 145 O_a :3d2-  -0.0024  -0.0338  -0.0000   0.0168  -0.0000  -0.0059
 146 O_a :3d1-  -0.0000  -0.0000   0.0081   0.0000   0.0107  -0.0000
 147 O_a :3d0    0.0023   0.0168  -0.0000   0.0066   0.0000   0.0259
 148 O_a :3d1+  -0.0000   0.0000   0.0104   0.0000  -0.0255   0.0000
 149 O_a :3d2+  -0.0296   0.0182   0.0000  -0.0076  -0.0000  -0.0232
 150 O_a :3d2-   0.1661  -0.0891  -0.0000   0.0902  -0.0000  -0.0744
 151 O_a :3d1-   0.0000   0.0000   0.1401  -0.0000   0.1897   0.0000
 152 O_a :3d0    0.1030   0.1302  -0.0000   0.0161  -0.0000   0.0147
 153 O_a :3d1+   0.0000   0.0000  -0.0494  -0.0000   0.0510   0.0000
 154 O_a :3d2+   0.0050   0.1680  -0.0000   0.0037   0.0000  -0.0256

  Total CPU  time used in SIRIUS :   4.09 seconds
  Total wall time used in SIRIUS :   4.14 seconds

 
     Date and time (Linux)  : Sat Jul 27 18:18:57 2024
     Host name              : dn006                                   


                     .---------------------------------------.
                     | End of Wave Function Section (SIRIUS) |
                     `---------------------------------------'



                 .------------------------------------------------.
                 | Starting in Dynamic Property Section (RESPONS) |
                 `------------------------------------------------'


 ----------------------------------------------------------------------------------------
  RESPONSE  -  an MCSCF, MC-srDFT, DFT, SOPPA and SOPPA-srDFT response property program
 ----------------------------------------------------------------------------------------


 -------- OUTPUT FROM RESPONSE INPUT PROCESSING --------




 Quadratic Response calculation
 ------------------------------

 First hyperpolarizability calculation : HYPCAL= T

 Spin of operator A , ISPINA=    0
 Spin of operator B , ISPINB=    0
 Spin of operator C , ISPINC=    0

  5 B-frequencies  0.000000D+00  6.344563D-03  1.268913D-02  1.903369D-02  2.537825D-02
  5 C-frequencies  0.000000D+00  6.344563D-03  1.268913D-02  1.903369D-02  2.537825D-02


 Print level                                    : IPRHYP =   2
 Maximum number of iterations in lin.rsp. solver: MAXITL =  60
 Threshold for convergence of linear resp. eq.s : THCLR  = 1.000D-03
 Maximum iterations in optimal orbital algorithm: MAXITO =   5
 Direct one-index transformation                : DIROIT = T

    3 A OPERATORS OF SYMMETRY NO:    1 AND LABELS:

          XDIPLEN 
          YDIPLEN 
          ZDIPLEN 

    3 B OPERATORS OF SYMMETRY NO:    1 AND LABELS:

          XDIPLEN 
          YDIPLEN 
          ZDIPLEN 

    3 C OPERATORS OF SYMMETRY NO:    1 AND LABELS:

          XDIPLEN 
          YDIPLEN 
          ZDIPLEN 


   SCF energy         :     -588.728526483067412
 -- inactive part     :     -673.876946267520452
 -- nuclear repulsion :       85.148419784453068


                     ***************************************
                     *** RHF response calculation (TDHF) ***
                     ***************************************



 Linear response calculations for quadratic response
 - singlet property operator of symmetry    1  ( A  )


 Perturbation symmetry.     KSYMOP:           1
 Perturbation spin symmetry.TRPLET:           F
 Orbital variables.         KZWOPT:        2208
 Configuration variables.   KZCONF:           0
 Total number of variables. KZVAR :        2208


 QRLRVE -- linear response calculation for symmetry  1  ( A  )
 QRLRVE -- operator label : XDIPLEN 
 QRLRVE -- operator spin  :   0
 QRLRVE -- frequencies :  0.000000  0.006345  0.012689  0.019034  0.025378
                          0.031723  0.038067  0.044412  0.050757



 ---  SOLVING SETS OF LINEAR EQUATIONS FOR LINEAR RESPONSE PROPERTIES ---

 Operator symmetry = 1  ( A  ); triplet =   F

RSPORT:    2 out of    9 new trial vectors linear dependent

 ** RSPCTL MICROITERATION NUMBER    1

       No.  Residual tot.,    conf., and orb.    Bnorm      Frequency 
      ----------------------------------------------------------------
         1    4.02031D+00  0.00D+00  4.02D+00  4.12D+00    0.00000D+00
         2    4.02102D+00  0.00D+00  4.02D+00  4.12D+00    6.34456D-03
         3    4.02315D+00  0.00D+00  4.02D+00  4.12D+00    1.26891D-02
         4    4.02671D+00  0.00D+00  4.03D+00  4.13D+00    1.90337D-02
         5    4.03171D+00  0.00D+00  4.03D+00  4.14D+00    2.53783D-02
         6    4.03818D+00  0.00D+00  4.04D+00  4.16D+00    3.17228D-02
         7    4.04614D+00  0.00D+00  4.05D+00  4.18D+00    3.80674D-02
         8    4.05562D+00  0.00D+00  4.06D+00  4.20D+00    4.44119D-02
         9    4.06667D+00  0.00D+00  4.07D+00  4.23D+00    5.07565D-02

 ** RSPCTL MICROITERATION NUMBER    2

       No.  Residual tot.,    conf., and orb.    Bnorm      Frequency 
      ----------------------------------------------------------------
         1    1.01042D+00  0.00D+00  1.01D+00  5.07D+00    0.00000D+00
         2    1.01075D+00  0.00D+00  1.01D+00  5.07D+00    6.34456D-03
         3    1.01174D+00  0.00D+00  1.01D+00  5.08D+00    1.26891D-02
         4    1.01339D+00  0.00D+00  1.01D+00  5.09D+00    1.90337D-02
         5    1.01573D+00  0.00D+00  1.02D+00  5.11D+00    2.53783D-02
         6    1.01878D+00  0.00D+00  1.02D+00  5.14D+00    3.17228D-02
         7    1.02255D+00  0.00D+00  1.02D+00  5.17D+00    3.80674D-02
         8    1.02708D+00  0.00D+00  1.03D+00  5.21D+00    4.44119D-02
         9    1.03242D+00  0.00D+00  1.03D+00  5.26D+00    5.07565D-02

 ** RSPCTL MICROITERATION NUMBER    3

       No.  Residual tot.,    conf., and orb.    Bnorm      Frequency 
      ----------------------------------------------------------------
         1    1.93262D-01  0.00D+00  1.93D-01  5.20D+00    0.00000D+00
         2    1.93385D-01  0.00D+00  1.93D-01  5.21D+00    6.34456D-03
         3    1.93754D-01  0.00D+00  1.94D-01  5.22D+00    1.26891D-02
         4    1.94374D-01  0.00D+00  1.94D-01  5.23D+00    1.90337D-02
         5    1.95253D-01  0.00D+00  1.95D-01  5.25D+00    2.53783D-02
         6    1.96401D-01  0.00D+00  1.96D-01  5.28D+00    3.17228D-02
         7    1.97833D-01  0.00D+00  1.98D-01  5.32D+00    3.80674D-02
         8    1.99568D-01  0.00D+00  2.00D-01  5.36D+00    4.44119D-02
         9    2.01630D-01  0.00D+00  2.02D-01  5.41D+00    5.07565D-02

 ** RSPCTL MICROITERATION NUMBER    4

       No.  Residual tot.,    conf., and orb.    Bnorm      Frequency 
      ----------------------------------------------------------------
         1    3.88950D-02  0.00D+00  3.89D-02  5.21D+00    0.00000D+00
         2    3.89307D-02  0.00D+00  3.89D-02  5.21D+00    6.34456D-03
         3    3.90384D-02  0.00D+00  3.90D-02  5.22D+00    1.26891D-02
         4    3.92195D-02  0.00D+00  3.92D-02  5.24D+00    1.90337D-02
         5    3.94766D-02  0.00D+00  3.95D-02  5.26D+00    2.53783D-02
         6    3.98134D-02  0.00D+00  3.98D-02  5.29D+00    3.17228D-02
         7    4.02348D-02  0.00D+00  4.02D-02  5.32D+00    3.80674D-02
         8    4.07476D-02  0.00D+00  4.07D-02  5.37D+00    4.44119D-02
         9    4.13598D-02  0.00D+00  4.14D-02  5.42D+00    5.07565D-02

 ** RSPCTL MICROITERATION NUMBER    5

       No.  Residual tot.,    conf., and orb.    Bnorm      Frequency 
      ----------------------------------------------------------------
         1    6.15294D-03  0.00D+00  6.15D-03  5.21D+00    0.00000D+00
         2    6.16158D-03  0.00D+00  6.16D-03  5.21D+00    6.34456D-03
         3    6.18765D-03  0.00D+00  6.19D-03  5.22D+00    1.26891D-02
         4    6.23162D-03  0.00D+00  6.23D-03  5.24D+00    1.90337D-02
         5    6.29430D-03  0.00D+00  6.29D-03  5.26D+00    2.53783D-02
         6    6.37689D-03  0.00D+00  6.38D-03  5.29D+00    3.17228D-02
         7    6.48098D-03  0.00D+00  6.48D-03  5.33D+00    3.80674D-02
         8    6.60867D-03  0.00D+00  6.61D-03  5.37D+00    4.44119D-02
         9    6.76264D-03  0.00D+00  6.76D-03  5.42D+00    5.07565D-02

 ** RSPCTL MICROITERATION NUMBER    6

       No.  Residual tot.,    conf., and orb.    Bnorm      Frequency 
      ----------------------------------------------------------------
         1    6.18517D-04  0.00D+00  6.19D-04  5.21D+00    0.00000D+00
         2    6.19513D-04  0.00D+00  6.20D-04  5.21D+00    6.34456D-03
         3    6.22534D-04  0.00D+00  6.23D-04  5.22D+00    1.26891D-02
         4    6.27667D-04  0.00D+00  6.28D-04  5.24D+00    1.90337D-02
         5    6.35070D-04  0.00D+00  6.35D-04  5.26D+00    2.53783D-02
         6    6.44971D-04  0.00D+00  6.45D-04  5.29D+00    3.17228D-02
         7    6.57685D-04  0.00D+00  6.58D-04  5.33D+00    3.80674D-02
         8    6.73628D-04  0.00D+00  6.74D-04  5.37D+00    4.44119D-02
         9    6.93341D-04  0.00D+00  6.93D-04  5.42D+00    5.07565D-02

 *** THE REQUESTED    9 SOLUTION VECTORS CONVERGED

 Convergence of RSP solution vectors, threshold = 1.00D-03
 ---------------------------------------------------------------
 (dimension of paired reduced space:  104)
 RSP solution vector no.    1; norm of residual   1.19D-04
 RSP solution vector no.    2; norm of residual   1.19D-04
 RSP solution vector no.    3; norm of residual   1.19D-04
 RSP solution vector no.    4; norm of residual   1.20D-04
 RSP solution vector no.    5; norm of residual   1.21D-04
 RSP solution vector no.    6; norm of residual   1.22D-04
 RSP solution vector no.    7; norm of residual   1.24D-04
 RSP solution vector no.    8; norm of residual   1.25D-04
 RSP solution vector no.    9; norm of residual   1.28D-04

 *** RSPCTL MICROITERATIONS CONVERGED

@ QRLRVE: SINGLET SOLUTION FOR SYMMETRY    1  ( A  )    LABEL   XDIPLEN     FREQUENCY   0.000000D+00

@ QRLRVE:  << XDIPLEN  ; XDIPLEN  >> (   0.00000):     31.5549682063    

@ QRLRVE:  << YDIPLEN  ; XDIPLEN  >> (   0.00000):     12.8700122057    

@ QRLRVE:  << ZDIPLEN  ; XDIPLEN  >> (   0.00000):   -2.639248033276E-15

@ QRLRVE: SINGLET SOLUTION FOR SYMMETRY    1  ( A  )    LABEL   XDIPLEN     FREQUENCY   0.634456D-02

@ QRLRVE:  << XDIPLEN  ; XDIPLEN  >> (   0.00634):     31.5619468053    

@ QRLRVE:  << YDIPLEN  ; XDIPLEN  >> (   0.00634):     12.8780256571    

@ QRLRVE:  << ZDIPLEN  ; XDIPLEN  >> (   0.00634):   -2.658983126350E-15

@ QRLRVE: SINGLET SOLUTION FOR SYMMETRY    1  ( A  )    LABEL   XDIPLEN     FREQUENCY   0.126891D-01

@ QRLRVE:  << XDIPLEN  ; XDIPLEN  >> (   0.01269):     31.5829212600    

@ QRLRVE:  << YDIPLEN  ; XDIPLEN  >> (   0.01269):     12.9021354752    

@ QRLRVE:  << ZDIPLEN  ; XDIPLEN  >> (   0.01269):   -2.718653739422E-15

@ QRLRVE: SINGLET SOLUTION FOR SYMMETRY    1  ( A  )    LABEL   XDIPLEN     FREQUENCY   0.190337D-01

@ QRLRVE:  << XDIPLEN  ; XDIPLEN  >> (   0.01903):     31.6180083315    

@ QRLRVE:  << YDIPLEN  ; XDIPLEN  >> (   0.01903):     12.9425517387    

@ QRLRVE:  << ZDIPLEN  ; XDIPLEN  >> (   0.01903):   -2.819676028434E-15

@ QRLRVE: SINGLET SOLUTION FOR SYMMETRY    1  ( A  )    LABEL   XDIPLEN     FREQUENCY   0.253783D-01

@ QRLRVE:  << XDIPLEN  ; XDIPLEN  >> (   0.02538):     31.6674052822    

@ QRLRVE:  << YDIPLEN  ; XDIPLEN  >> (   0.02538):     12.9996302871    

@ QRLRVE:  << ZDIPLEN  ; XDIPLEN  >> (   0.02538):   -2.964478799069E-15

@ QRLRVE: SINGLET SOLUTION FOR SYMMETRY    1  ( A  )    LABEL   XDIPLEN     FREQUENCY   0.317228D-01

@ QRLRVE:  << XDIPLEN  ; XDIPLEN  >> (   0.03172):     31.7313939961    

@ QRLRVE:  << YDIPLEN  ; XDIPLEN  >> (   0.03172):     13.0738815773    

@ QRLRVE:  << ZDIPLEN  ; XDIPLEN  >> (   0.03172):   -3.156611235223E-15

@ QRLRVE: SINGLET SOLUTION FOR SYMMETRY    1  ( A  )    LABEL   XDIPLEN     FREQUENCY   0.380674D-01

@ QRLRVE:  << XDIPLEN  ; XDIPLEN  >> (   0.03807):     31.8103470151    

@ QRLRVE:  << YDIPLEN  ; XDIPLEN  >> (   0.03807):     13.1659836979    

@ QRLRVE:  << ZDIPLEN  ; XDIPLEN  >> (   0.03807):   -3.400904038362E-15

@ QRLRVE: SINGLET SOLUTION FOR SYMMETRY    1  ( A  )    LABEL   XDIPLEN     FREQUENCY   0.444119D-01

@ QRLRVE:  << XDIPLEN  ; XDIPLEN  >> (   0.04441):     31.9047357874    

@ QRLRVE:  << YDIPLEN  ; XDIPLEN  >> (   0.04441):     13.2768002178    

@ QRLRVE:  << ZDIPLEN  ; XDIPLEN  >> (   0.04441):   -3.703695533899E-15

@ QRLRVE: SINGLET SOLUTION FOR SYMMETRY    1  ( A  )    LABEL   XDIPLEN     FREQUENCY   0.507565D-01

@ QRLRVE:  << XDIPLEN  ; XDIPLEN  >> (   0.05076):     32.0151415496    

@ QRLRVE:  << YDIPLEN  ; XDIPLEN  >> (   0.05076):     13.4074038351    

@ QRLRVE:  << ZDIPLEN  ; XDIPLEN  >> (   0.05076):   -4.073139561958E-15


 QRLRVE -- linear response calculation for symmetry  1  ( A  )
 QRLRVE -- operator label : YDIPLEN 
 QRLRVE -- operator spin  :   0
 QRLRVE -- frequencies :  0.000000  0.006345  0.012689  0.019034  0.025378
                          0.031723  0.038067  0.044412  0.050757



 ---  SOLVING SETS OF LINEAR EQUATIONS FOR LINEAR RESPONSE PROPERTIES ---

 Operator symmetry = 1  ( A  ); triplet =   F

RSPORT:    2 out of    9 new trial vectors linear dependent

 ** RSPCTL MICROITERATION NUMBER    1

       No.  Residual tot.,    conf., and orb.    Bnorm      Frequency 
      ----------------------------------------------------------------
         1    4.54621D+00  0.00D+00  4.55D+00  5.60D+00    0.00000D+00
         2    4.54787D+00  0.00D+00  4.55D+00  5.61D+00    6.34456D-03
         3    4.55283D+00  0.00D+00  4.55D+00  5.62D+00    1.26891D-02
         4    4.56114D+00  0.00D+00  4.56D+00  5.64D+00    1.90337D-02
         5    4.57283D+00  0.00D+00  4.57D+00  5.67D+00    2.53783D-02
         6    4.58797D+00  0.00D+00  4.59D+00  5.70D+00    3.17228D-02
         7    4.60664D+00  0.00D+00  4.61D+00  5.75D+00    3.80674D-02
         8    4.62892D+00  0.00D+00  4.63D+00  5.80D+00    4.44119D-02
         9    4.65496D+00  0.00D+00  4.65D+00  5.86D+00    5.07565D-02

 ** RSPCTL MICROITERATION NUMBER    2

       No.  Residual tot.,    conf., and orb.    Bnorm      Frequency 
      ----------------------------------------------------------------
         1    1.21190D+00  0.00D+00  1.21D+00  7.41D+00    0.00000D+00
         2    1.21304D+00  0.00D+00  1.21D+00  7.42D+00    6.34456D-03
         3    1.21647D+00  0.00D+00  1.22D+00  7.44D+00    1.26891D-02
         4    1.22223D+00  0.00D+00  1.22D+00  7.47D+00    1.90337D-02
         5    1.23037D+00  0.00D+00  1.23D+00  7.52D+00    2.53783D-02
         6    1.24100D+00  0.00D+00  1.24D+00  7.59D+00    3.17228D-02
         7    1.25422D+00  0.00D+00  1.25D+00  7.67D+00    3.80674D-02
         8    1.27019D+00  0.00D+00  1.27D+00  7.77D+00    4.44119D-02
         9    1.28909D+00  0.00D+00  1.29D+00  7.88D+00    5.07565D-02

 ** RSPCTL MICROITERATION NUMBER    3

       No.  Residual tot.,    conf., and orb.    Bnorm      Frequency 
      ----------------------------------------------------------------
         1    2.48472D-01  0.00D+00  2.48D-01  7.65D+00    0.00000D+00
         2    2.48879D-01  0.00D+00  2.49D-01  7.66D+00    6.34456D-03
         3    2.50109D-01  0.00D+00  2.50D-01  7.68D+00    1.26891D-02
         4    2.52183D-01  0.00D+00  2.52D-01  7.72D+00    1.90337D-02
         5    2.55136D-01  0.00D+00  2.55D-01  7.78D+00    2.53783D-02
         6    2.59020D-01  0.00D+00  2.59D-01  7.85D+00    3.17228D-02
         7    2.63905D-01  0.00D+00  2.64D-01  7.94D+00    3.80674D-02
         8    2.69879D-01  0.00D+00  2.70D-01  8.05D+00    4.44119D-02
         9    2.77055D-01  0.00D+00  2.77D-01  8.18D+00    5.07565D-02

 ** RSPCTL MICROITERATION NUMBER    4

       No.  Residual tot.,    conf., and orb.    Bnorm      Frequency 
      ----------------------------------------------------------------
         1    4.68821D-02  0.00D+00  4.69D-02  7.66D+00    0.00000D+00
         2    4.69694D-02  0.00D+00  4.70D-02  7.67D+00    6.34456D-03
         3    4.72330D-02  0.00D+00  4.72D-02  7.69D+00    1.26891D-02
         4    4.76787D-02  0.00D+00  4.77D-02  7.73D+00    1.90337D-02
         5    4.83164D-02  0.00D+00  4.83D-02  7.79D+00    2.53783D-02
         6    4.91602D-02  0.00D+00  4.92D-02  7.86D+00    3.17228D-02
         7    5.02291D-02  0.00D+00  5.02D-02  7.95D+00    3.80674D-02
         8    5.15474D-02  0.00D+00  5.15D-02  8.06D+00    4.44119D-02
         9    5.31461D-02  0.00D+00  5.31D-02  8.19D+00    5.07565D-02

 ** RSPCTL MICROITERATION NUMBER    5

       No.  Residual tot.,    conf., and orb.    Bnorm      Frequency 
      ----------------------------------------------------------------
         1    9.23397D-03  0.00D+00  9.23D-03  7.66D+00    0.00000D+00
         2    9.25376D-03  0.00D+00  9.25D-03  7.67D+00    6.34456D-03
         3    9.31354D-03  0.00D+00  9.31D-03  7.69D+00    1.26891D-02
         4    9.41451D-03  0.00D+00  9.41D-03  7.73D+00    1.90337D-02
         5    9.55868D-03  0.00D+00  9.56D-03  7.79D+00    2.53783D-02
         6    9.74902D-03  0.00D+00  9.75D-03  7.86D+00    3.17228D-02
         7    9.98945D-03  0.00D+00  9.99D-03  7.95D+00    3.80674D-02
         8    1.02851D-02  0.00D+00  1.03D-02  8.06D+00    4.44119D-02
         9    1.06422D-02  0.00D+00  1.06D-02  8.19D+00    5.07565D-02

 ** RSPCTL MICROITERATION NUMBER    6

       No.  Residual tot.,    conf., and orb.    Bnorm      Frequency 
      ----------------------------------------------------------------
         1    1.63570D-03  0.00D+00  1.64D-03  7.66D+00    0.00000D+00
         2    1.63950D-03  0.00D+00  1.64D-03  7.67D+00    6.34456D-03
         3    1.65096D-03  0.00D+00  1.65D-03  7.69D+00    1.26891D-02
         4    1.67029D-03  0.00D+00  1.67D-03  7.73D+00    1.90337D-02
         5    1.69785D-03  0.00D+00  1.70D-03  7.79D+00    2.53783D-02
         6    1.73416D-03  0.00D+00  1.73D-03  7.86D+00    3.17228D-02
         7    1.77992D-03  0.00D+00  1.78D-03  7.95D+00    3.80674D-02
         8    1.83602D-03  0.00D+00  1.84D-03  8.06D+00    4.44119D-02
         9    1.90359D-03  0.00D+00  1.90D-03  8.19D+00    5.07565D-02

 *** THE REQUESTED    9 SOLUTION VECTORS CONVERGED

 Convergence of RSP solution vectors, threshold = 1.00D-03
 ---------------------------------------------------------------
 (dimension of paired reduced space:  104)
 RSP solution vector no.    1; norm of residual   2.14D-04
 RSP solution vector no.    2; norm of residual   2.14D-04
 RSP solution vector no.    3; norm of residual   2.15D-04
 RSP solution vector no.    4; norm of residual   2.16D-04
 RSP solution vector no.    5; norm of residual   2.18D-04
 RSP solution vector no.    6; norm of residual   2.21D-04
 RSP solution vector no.    7; norm of residual   2.24D-04
 RSP solution vector no.    8; norm of residual   2.28D-04
 RSP solution vector no.    9; norm of residual   2.32D-04

 *** RSPCTL MICROITERATIONS CONVERGED

@ QRLRVE: SINGLET SOLUTION FOR SYMMETRY    1  ( A  )    LABEL   YDIPLEN     FREQUENCY   0.000000D+00

@ QRLRVE:  << XDIPLEN  ; YDIPLEN  >> (   0.00000):     12.8702479499    

@ QRLRVE:  << YDIPLEN  ; YDIPLEN  >> (   0.00000):     47.5995886012    

@ QRLRVE:  << ZDIPLEN  ; YDIPLEN  >> (   0.00000):    5.534539059165E-16

@ QRLRVE: SINGLET SOLUTION FOR SYMMETRY    1  ( A  )    LABEL   YDIPLEN     FREQUENCY   0.634456D-02

@ QRLRVE:  << XDIPLEN  ; YDIPLEN  >> (   0.00634):     12.8782617242    

@ QRLRVE:  << YDIPLEN  ; YDIPLEN  >> (   0.00634):     47.6202195669    

@ QRLRVE:  << ZDIPLEN  ; YDIPLEN  >> (   0.00634):    5.500835325149E-16

@ QRLRVE: SINGLET SOLUTION FOR SYMMETRY    1  ( A  )    LABEL   YDIPLEN     FREQUENCY   0.126891D-01

@ QRLRVE:  << XDIPLEN  ; YDIPLEN  >> (   0.01269):     12.9023725129    

@ QRLRVE:  << YDIPLEN  ; YDIPLEN  >> (   0.01269):     47.6822827864    

@ QRLRVE:  << ZDIPLEN  ; YDIPLEN  >> (   0.01269):    5.399987862433E-16

@ QRLRVE: SINGLET SOLUTION FOR SYMMETRY    1  ( A  )    LABEL   YDIPLEN     FREQUENCY   0.190337D-01

@ QRLRVE:  << XDIPLEN  ; YDIPLEN  >> (   0.01903):     12.9427904005    

@ QRLRVE:  << YDIPLEN  ; YDIPLEN  >> (   0.01903):     47.7862933472    

@ QRLRVE:  << ZDIPLEN  ; YDIPLEN  >> (   0.01903):    5.232817839660E-16

@ QRLRVE: SINGLET SOLUTION FOR SYMMETRY    1  ( A  )    LABEL   YDIPLEN     FREQUENCY   0.253783D-01

@ QRLRVE:  << XDIPLEN  ; YDIPLEN  >> (   0.02538):     12.9998712362    

@ QRLRVE:  << YDIPLEN  ; YDIPLEN  >> (   0.02538):     47.9331236663    

@ QRLRVE:  << ZDIPLEN  ; YDIPLEN  >> (   0.02538):    5.000796370761E-16

@ QRLRVE: SINGLET SOLUTION FOR SYMMETRY    1  ( A  )    LABEL   YDIPLEN     FREQUENCY   0.317228D-01

@ QRLRVE:  << XDIPLEN  ; YDIPLEN  >> (   0.03172):     13.0741254901    

@ QRLRVE:  << YDIPLEN  ; YDIPLEN  >> (   0.03172):     48.1240251162    

@ QRLRVE:  << ZDIPLEN  ; YDIPLEN  >> (   0.03172):    4.706207893227E-16

@ QRLRVE: SINGLET SOLUTION FOR SYMMETRY    1  ( A  )    LABEL   YDIPLEN     FREQUENCY   0.380674D-01

@ QRLRVE:  << XDIPLEN  ; YDIPLEN  >> (   0.03807):     13.1662312672    

@ QRLRVE:  << YDIPLEN  ; YDIPLEN  >> (   0.03807):     48.3606598015    

@ QRLRVE:  << ZDIPLEN  ; YDIPLEN  >> (   0.03807):    4.352399294977E-16

@ QRLRVE: SINGLET SOLUTION FOR SYMMETRY    1  ( A  )    LABEL   YDIPLEN     FREQUENCY   0.444119D-01

@ QRLRVE:  << XDIPLEN  ; YDIPLEN  >> (   0.04441):     13.2770521551    

@ QRLRVE:  << YDIPLEN  ; YDIPLEN  >> (   0.04441):     48.6451441395    

@ QRLRVE:  << ZDIPLEN  ; YDIPLEN  >> (   0.04441):    3.944138024854E-16

@ QRLRVE: SINGLET SOLUTION FOR SYMMETRY    1  ( A  )    LABEL   YDIPLEN     FREQUENCY   0.507565D-01

@ QRLRVE:  << XDIPLEN  ; YDIPLEN  >> (   0.05076):     13.4076608725    

@ QRLRVE:  << YDIPLEN  ; YDIPLEN  >> (   0.05076):     48.9801066037    

@ QRLRVE:  << ZDIPLEN  ; YDIPLEN  >> (   0.05076):    3.488113609088E-16


 QRLRVE -- linear response calculation for symmetry  1  ( A  )
 QRLRVE -- operator label : ZDIPLEN 
 QRLRVE -- operator spin  :   0
 QRLRVE -- frequencies :  0.000000  0.006345  0.012689  0.019034  0.025378
                          0.031723  0.038067  0.044412  0.050757



 ---  SOLVING SETS OF LINEAR EQUATIONS FOR LINEAR RESPONSE PROPERTIES ---

 Operator symmetry = 1  ( A  ); triplet =   F

RSPORT:    2 out of    9 new trial vectors linear dependent

 ** RSPCTL MICROITERATION NUMBER    1

       No.  Residual tot.,    conf., and orb.    Bnorm      Frequency 
      ----------------------------------------------------------------
         1    1.60264D+00  0.00D+00  1.60D+00  3.66D+00    0.00000D+00
         2    1.60280D+00  0.00D+00  1.60D+00  3.66D+00    6.34456D-03
         3    1.60328D+00  0.00D+00  1.60D+00  3.66D+00    1.26891D-02
         4    1.60408D+00  0.00D+00  1.60D+00  3.66D+00    1.90337D-02
         5    1.60520D+00  0.00D+00  1.61D+00  3.67D+00    2.53783D-02
         6    1.60666D+00  0.00D+00  1.61D+00  3.68D+00    3.17228D-02
         7    1.60844D+00  0.00D+00  1.61D+00  3.69D+00    3.80674D-02
         8    1.61055D+00  0.00D+00  1.61D+00  3.71D+00    4.44119D-02
         9    1.61301D+00  0.00D+00  1.61D+00  3.72D+00    5.07565D-02

 ** RSPCTL MICROITERATION NUMBER    2

       No.  Residual tot.,    conf., and orb.    Bnorm      Frequency 
      ----------------------------------------------------------------
         1    2.89447D-01  0.00D+00  2.89D-01  3.86D+00    0.00000D+00
         2    2.89666D-01  0.00D+00  2.90D-01  3.87D+00    6.34456D-03
         3    2.90328D-01  0.00D+00  2.90D-01  3.87D+00    1.26891D-02
         4    2.91449D-01  0.00D+00  2.91D-01  3.88D+00    1.90337D-02
         5    2.93057D-01  0.00D+00  2.93D-01  3.89D+00    2.53783D-02
         6    2.95194D-01  0.00D+00  2.95D-01  3.90D+00    3.17228D-02
         7    2.97916D-01  0.00D+00  2.98D-01  3.91D+00    3.80674D-02
         8    3.01302D-01  0.00D+00  3.01D-01  3.93D+00    4.44119D-02
         9    3.05454D-01  0.00D+00  3.05D-01  3.95D+00    5.07565D-02

 ** RSPCTL MICROITERATION NUMBER    3

       No.  Residual tot.,    conf., and orb.    Bnorm      Frequency 
      ----------------------------------------------------------------
         1    3.99981D-02  0.00D+00  4.00D-02  3.88D+00    0.00000D+00
         2    4.00810D-02  0.00D+00  4.01D-02  3.88D+00    6.34456D-03
         3    4.03395D-02  0.00D+00  4.03D-02  3.88D+00    1.26891D-02
         4    4.08047D-02  0.00D+00  4.08D-02  3.89D+00    1.90337D-02
         5    4.15339D-02  0.00D+00  4.15D-02  3.90D+00    2.53783D-02
         6    4.26203D-02  0.00D+00  4.26D-02  3.92D+00    3.17228D-02
         7    4.42084D-02  0.00D+00  4.42D-02  3.94D+00    3.80674D-02
         8    4.65193D-02  0.00D+00  4.65D-02  3.96D+00    4.44119D-02
         9    4.98923D-02  0.00D+00  4.99D-02  3.99D+00    5.07565D-02

 ** RSPCTL MICROITERATION NUMBER    4

       No.  Residual tot.,    conf., and orb.    Bnorm      Frequency 
      ----------------------------------------------------------------
         1    5.08680D-03  0.00D+00  5.09D-03  3.88D+00    0.00000D+00
         2    5.15336D-03  0.00D+00  5.15D-03  3.88D+00    6.34456D-03
         3    5.35737D-03  0.00D+00  5.36D-03  3.88D+00    1.26891D-02
         4    5.71219D-03  0.00D+00  5.71D-03  3.89D+00    1.90337D-02
         5    6.24138D-03  0.00D+00  6.24D-03  3.90D+00    2.53783D-02
         6    6.98124D-03  0.00D+00  6.98D-03  3.92D+00    3.17228D-02
         7    7.98544D-03  0.00D+00  7.99D-03  3.94D+00    3.80674D-02
         8    9.33355D-03  0.00D+00  9.33D-03  3.96D+00    4.44119D-02
         9    1.11464D-02  0.00D+00  1.11D-02  3.99D+00    5.07565D-02

 ** RSPCTL MICROITERATION NUMBER    5

       No.  Residual tot.,    conf., and orb.    Bnorm      Frequency 
      ----------------------------------------------------------------
         1    8.45565D-04  0.00D+00  8.46D-04  3.88D+00    0.00000D+00
         2    8.77772D-04  0.00D+00  8.78D-04  3.88D+00    6.34456D-03
         3    9.72089D-04  0.00D+00  9.72D-04  3.88D+00    1.26891D-02
         4    1.12431D-03  0.00D+00  1.12D-03  3.89D+00    1.90337D-02
         5    1.33308D-03  0.00D+00  1.33D-03  3.90D+00    2.53783D-02
         6    1.60289D-03  0.00D+00  1.60D-03  3.92D+00    3.17228D-02
         7    1.94552D-03  0.00D+00  1.95D-03  3.94D+00    3.80674D-02
         8    2.38196D-03  0.00D+00  2.38D-03  3.96D+00    4.44119D-02
         9    2.94640D-03  0.00D+00  2.95D-03  3.99D+00    5.07565D-02

[...]
@ B-freq = 0.019034  C-freq = 0.019034     beta(Y;Z,Y) =     -0.00000000
@ B-freq = 0.019034  C-freq = 0.019034     beta(Z;Z,Y) =     43.95169162
@ B-freq = 0.025378  C-freq = 0.019034     beta(X;Z,Y) =      0.00000000
@ B-freq = 0.025378  C-freq = 0.019034     beta(Y;Z,Y) =     -0.00000000
@ B-freq = 0.025378  C-freq = 0.019034     beta(Z;Z,Y) =     44.04788759
@ B-freq = 0.000000  C-freq = 0.025378     beta(X;X,Y) = beta(X,Y,X)
@ B-freq = 0.000000  C-freq = 0.025378     beta(Y;X,Y) = beta(Y,Y,X)
@ B-freq = 0.000000  C-freq = 0.025378     beta(Z;X,Y) = beta(Z,Y,X)
@ B-freq = 0.006345  C-freq = 0.025378     beta(X;X,Y) = beta(X,Y,X)
@ B-freq = 0.006345  C-freq = 0.025378     beta(Y;X,Y) = beta(Y,Y,X)
@ B-freq = 0.006345  C-freq = 0.025378     beta(Z;X,Y) = beta(Z,Y,X)
@ B-freq = 0.012689  C-freq = 0.025378     beta(X;X,Y) = beta(X,Y,X)
@ B-freq = 0.012689  C-freq = 0.025378     beta(Y;X,Y) = beta(Y,Y,X)
@ B-freq = 0.012689  C-freq = 0.025378     beta(Z;X,Y) = beta(Z,Y,X)
@ B-freq = 0.019034  C-freq = 0.025378     beta(X;X,Y) = beta(X,Y,X)
@ B-freq = 0.019034  C-freq = 0.025378     beta(Y;X,Y) = beta(Y,Y,X)
@ B-freq = 0.019034  C-freq = 0.025378     beta(Z;X,Y) = beta(Z,Y,X)
@ B-freq = 0.025378  C-freq = 0.025378     beta(X;X,Y) = beta(X,Y,X)
@ B-freq = 0.025378  C-freq = 0.025378     beta(Y;X,Y) = beta(Y,Y,X)
@ B-freq = 0.025378  C-freq = 0.025378     beta(Z;X,Y) = beta(Z,Y,X)
@ B-freq = 0.000000  C-freq = 0.025378     beta(X;Y,Y) = beta(X,Y,Y)
@ B-freq = 0.000000  C-freq = 0.025378     beta(Y;Y,Y) = beta(Y,Y,Y)
@ B-freq = 0.000000  C-freq = 0.025378     beta(Z;Y,Y) = beta(Z,Y,Y)
@ B-freq = 0.006345  C-freq = 0.025378     beta(X;Y,Y) = beta(X,Y,Y)
@ B-freq = 0.006345  C-freq = 0.025378     beta(Y;Y,Y) = beta(Y,Y,Y)
@ B-freq = 0.006345  C-freq = 0.025378     beta(Z;Y,Y) = beta(Z,Y,Y)
@ B-freq = 0.012689  C-freq = 0.025378     beta(X;Y,Y) = beta(X,Y,Y)
@ B-freq = 0.012689  C-freq = 0.025378     beta(Y;Y,Y) = beta(Y,Y,Y)
@ B-freq = 0.012689  C-freq = 0.025378     beta(Z;Y,Y) = beta(Z,Y,Y)
@ B-freq = 0.019034  C-freq = 0.025378     beta(X;Y,Y) = beta(X,Y,Y)
@ B-freq = 0.019034  C-freq = 0.025378     beta(Y;Y,Y) = beta(Y,Y,Y)
@ B-freq = 0.019034  C-freq = 0.025378     beta(Z;Y,Y) = beta(Z,Y,Y)
@ B-freq = 0.025378  C-freq = 0.025378     beta(X;Y,Y) =     -4.27912630
@ B-freq = 0.025378  C-freq = 0.025378     beta(Y;Y,Y) =     61.28096407
@ B-freq = 0.025378  C-freq = 0.025378     beta(Z;Y,Y) =     -0.00000000
@ B-freq = 0.000000  C-freq = 0.025378     beta(X;Z,Y) =      0.00000000
@ B-freq = 0.000000  C-freq = 0.025378     beta(Y;Z,Y) =     -0.00000000
@ B-freq = 0.000000  C-freq = 0.025378     beta(Z;Z,Y) =     44.03344847
@ B-freq = 0.006345  C-freq = 0.025378     beta(X;Z,Y) =      0.00000000
@ B-freq = 0.006345  C-freq = 0.025378     beta(Y;Z,Y) =     -0.00000000
@ B-freq = 0.006345  C-freq = 0.025378     beta(Z;Z,Y) =     44.09180638
@ B-freq = 0.012689  C-freq = 0.025378     beta(X;Z,Y) =      0.00000000
@ B-freq = 0.012689  C-freq = 0.025378     beta(Y;Z,Y) =     -0.00000000
@ B-freq = 0.012689  C-freq = 0.025378     beta(Z;Z,Y) =     44.16849898
@ B-freq = 0.019034  C-freq = 0.025378     beta(X;Z,Y) =      0.00000000
@ B-freq = 0.019034  C-freq = 0.025378     beta(Y;Z,Y) =     -0.00000000
@ B-freq = 0.019034  C-freq = 0.025378     beta(Z;Z,Y) =     44.25723396
@ B-freq = 0.025378  C-freq = 0.025378     beta(X;Z,Y) =      0.00000000
@ B-freq = 0.025378  C-freq = 0.025378     beta(Y;Z,Y) =     -0.00000000
@ B-freq = 0.025378  C-freq = 0.025378     beta(Z;Z,Y) =     44.34756254
@ B-freq = 0.000000  C-freq = 0.000000     beta(X;X,Z) = beta(Z,X,X)
@ B-freq = 0.000000  C-freq = 0.000000     beta(Y;X,Z) = beta(Z,Y,X)
@ B-freq = 0.000000  C-freq = 0.000000     beta(Z;X,Z) = beta(Z,Z,X)
@ B-freq = 0.006345  C-freq = 0.000000     beta(X;X,Z) = beta(X,Z,X)
@ B-freq = 0.006345  C-freq = 0.000000     beta(Y;X,Z) = beta(Y,Z,X)
@ B-freq = 0.006345  C-freq = 0.000000     beta(Z;X,Z) = beta(Z,Z,X)
@ B-freq = 0.012689  C-freq = 0.000000     beta(X;X,Z) = beta(X,Z,X)
@ B-freq = 0.012689  C-freq = 0.000000     beta(Y;X,Z) = beta(Y,Z,X)
@ B-freq = 0.012689  C-freq = 0.000000     beta(Z;X,Z) = beta(Z,Z,X)
@ B-freq = 0.019034  C-freq = 0.000000     beta(X;X,Z) = beta(X,Z,X)
@ B-freq = 0.019034  C-freq = 0.000000     beta(Y;X,Z) = beta(Y,Z,X)
@ B-freq = 0.019034  C-freq = 0.000000     beta(Z;X,Z) = beta(Z,Z,X)
@ B-freq = 0.025378  C-freq = 0.000000     beta(X;X,Z) = beta(X,Z,X)
@ B-freq = 0.025378  C-freq = 0.000000     beta(Y;X,Z) = beta(Y,Z,X)
@ B-freq = 0.025378  C-freq = 0.000000     beta(Z;X,Z) = beta(Z,Z,X)
@ B-freq = 0.000000  C-freq = 0.000000     beta(X;Y,Z) = beta(Z,Y,X)
@ B-freq = 0.000000  C-freq = 0.000000     beta(Y;Y,Z) = beta(Z,Y,Y)
@ B-freq = 0.000000  C-freq = 0.000000     beta(Z;Y,Z) = beta(Z,Z,Y)
@ B-freq = 0.006345  C-freq = 0.000000     beta(X;Y,Z) = beta(X,Z,Y)
@ B-freq = 0.006345  C-freq = 0.000000     beta(Y;Y,Z) = beta(Y,Z,Y)
@ B-freq = 0.006345  C-freq = 0.000000     beta(Z;Y,Z) = beta(Z,Z,Y)
@ B-freq = 0.012689  C-freq = 0.000000     beta(X;Y,Z) = beta(X,Z,Y)
@ B-freq = 0.012689  C-freq = 0.000000     beta(Y;Y,Z) = beta(Y,Z,Y)
@ B-freq = 0.012689  C-freq = 0.000000     beta(Z;Y,Z) = beta(Z,Z,Y)
@ B-freq = 0.019034  C-freq = 0.000000     beta(X;Y,Z) = beta(X,Z,Y)
@ B-freq = 0.019034  C-freq = 0.000000     beta(Y;Y,Z) = beta(Y,Z,Y)
@ B-freq = 0.019034  C-freq = 0.000000     beta(Z;Y,Z) = beta(Z,Z,Y)
@ B-freq = 0.025378  C-freq = 0.000000     beta(X;Y,Z) = beta(X,Z,Y)
@ B-freq = 0.025378  C-freq = 0.000000     beta(Y;Y,Z) = beta(Y,Z,Y)
@ B-freq = 0.025378  C-freq = 0.000000     beta(Z;Y,Z) = beta(Z,Z,Y)
@ B-freq = 0.000000  C-freq = 0.000000     beta(X;Z,Z) = beta(Z,Z,X)
@ B-freq = 0.000000  C-freq = 0.000000     beta(Y;Z,Z) = beta(Z,Z,Y)
@ B-freq = 0.000000  C-freq = 0.000000     beta(X;Z,Z) =     22.55780247
@ B-freq = 0.000000  C-freq = 0.000000     beta(Y;Z,Z) =     43.37994029
@ B-freq = 0.000000  C-freq = 0.000000     beta(Z;Z,Z) =     -0.00000000
@ B-freq = 0.006345  C-freq = 0.000000     beta(X;Z,Z) =     22.57744159
@ B-freq = 0.006345  C-freq = 0.000000     beta(Y;Z,Z) =     43.42051578
@ B-freq = 0.006345  C-freq = 0.000000     beta(Z;Z,Z) =     -0.00000000
@ B-freq = 0.012689  C-freq = 0.000000     beta(X;Z,Z) =     22.63647934
@ B-freq = 0.012689  C-freq = 0.000000     beta(Y;Z,Z) =     43.54246482
@ B-freq = 0.012689  C-freq = 0.000000     beta(Z;Z,Z) =     -0.00000000
@ B-freq = 0.019034  C-freq = 0.000000     beta(X;Z,Z) =     22.73527149
@ B-freq = 0.019034  C-freq = 0.000000     beta(Y;Z,Z) =     43.74643709
@ B-freq = 0.019034  C-freq = 0.000000     beta(Z;Z,Z) =     -0.00000000
@ B-freq = 0.025378  C-freq = 0.000000     beta(X;Z,Z) =     22.87439120
@ B-freq = 0.025378  C-freq = 0.000000     beta(Y;Z,Z) =     44.03344902
@ B-freq = 0.025378  C-freq = 0.000000     beta(Z;Z,Z) =     -0.00000000
@ B-freq = 0.000000  C-freq = 0.006345     beta(X;X,Z) = beta(X,Z,X)
@ B-freq = 0.000000  C-freq = 0.006345     beta(Y;X,Z) = beta(Y,Z,X)
@ B-freq = 0.000000  C-freq = 0.006345     beta(Z;X,Z) = beta(Z,Z,X)
@ B-freq = 0.006345  C-freq = 0.006345     beta(X;X,Z) = beta(X,Z,X)
@ B-freq = 0.006345  C-freq = 0.006345     beta(Y;X,Z) = beta(Y,Z,X)
@ B-freq = 0.006345  C-freq = 0.006345     beta(Z;X,Z) = beta(Z,Z,X)
@ B-freq = 0.012689  C-freq = 0.006345     beta(X;X,Z) = beta(X,Z,X)
@ B-freq = 0.012689  C-freq = 0.006345     beta(Y;X,Z) = beta(Y,Z,X)
@ B-freq = 0.012689  C-freq = 0.006345     beta(Z;X,Z) = beta(Z,Z,X)
@ B-freq = 0.019034  C-freq = 0.006345     beta(X;X,Z) = beta(X,Z,X)
@ B-freq = 0.019034  C-freq = 0.006345     beta(Y;X,Z) = beta(Y,Z,X)
@ B-freq = 0.019034  C-freq = 0.006345     beta(Z;X,Z) = beta(Z,Z,X)
@ B-freq = 0.025378  C-freq = 0.006345     beta(X;X,Z) = beta(X,Z,X)
@ B-freq = 0.025378  C-freq = 0.006345     beta(Y;X,Z) = beta(Y,Z,X)
@ B-freq = 0.025378  C-freq = 0.006345     beta(Z;X,Z) = beta(Z,Z,X)
@ B-freq = 0.000000  C-freq = 0.006345     beta(X;Y,Z) = beta(X,Z,Y)
@ B-freq = 0.000000  C-freq = 0.006345     beta(Y;Y,Z) = beta(Y,Z,Y)
@ B-freq = 0.000000  C-freq = 0.006345     beta(Z;Y,Z) = beta(Z,Z,Y)
@ B-freq = 0.006345  C-freq = 0.006345     beta(X;Y,Z) = beta(X,Z,Y)
@ B-freq = 0.006345  C-freq = 0.006345     beta(Y;Y,Z) = beta(Y,Z,Y)
@ B-freq = 0.006345  C-freq = 0.006345     beta(Z;Y,Z) = beta(Z,Z,Y)
@ B-freq = 0.012689  C-freq = 0.006345     beta(X;Y,Z) = beta(X,Z,Y)
@ B-freq = 0.012689  C-freq = 0.006345     beta(Y;Y,Z) = beta(Y,Z,Y)
@ B-freq = 0.012689  C-freq = 0.006345     beta(Z;Y,Z) = beta(Z,Z,Y)
@ B-freq = 0.019034  C-freq = 0.006345     beta(X;Y,Z) = beta(X,Z,Y)
@ B-freq = 0.019034  C-freq = 0.006345     beta(Y;Y,Z) = beta(Y,Z,Y)
@ B-freq = 0.019034  C-freq = 0.006345     beta(Z;Y,Z) = beta(Z,Z,Y)
@ B-freq = 0.025378  C-freq = 0.006345     beta(X;Y,Z) = beta(X,Z,Y)
@ B-freq = 0.025378  C-freq = 0.006345     beta(Y;Y,Z) = beta(Y,Z,Y)
@ B-freq = 0.025378  C-freq = 0.006345     beta(Z;Y,Z) = beta(Z,Z,Y)
@ B-freq = 0.000000  C-freq = 0.006345     beta(X;Z,Z) = beta(X,Z,Z)
@ B-freq = 0.000000  C-freq = 0.006345     beta(Y;Z,Z) = beta(Y,Z,Z)
@ B-freq = 0.000000  C-freq = 0.006345     beta(Z;Z,Z) = beta(Z,Z,Z)
@ B-freq = 0.006345  C-freq = 0.006345     beta(X;Z,Z) =     22.62907837
@ B-freq = 0.006345  C-freq = 0.006345     beta(Y;Z,Z) =     43.52979750
@ B-freq = 0.006345  C-freq = 0.006345     beta(Z;Z,Z) =     -0.00000000
@ B-freq = 0.012689  C-freq = 0.006345     beta(X;Z,Z) =     22.72058750
@ B-freq = 0.012689  C-freq = 0.006345     beta(Y;Z,Z) =     43.72153079
@ B-freq = 0.012689  C-freq = 0.006345     beta(Z;Z,Z) =     -0.00000000
@ B-freq = 0.019034  C-freq = 0.006345     beta(X;Z,Z) =     22.85266566
@ B-freq = 0.019034  C-freq = 0.006345     beta(Y;Z,Z) =     43.99713660
@ B-freq = 0.019034  C-freq = 0.006345     beta(Z;Z,Z) =     -0.00000000
@ B-freq = 0.025378  C-freq = 0.006345     beta(X;Z,Z) =     23.02624798
@ B-freq = 0.025378  C-freq = 0.006345     beta(Y;Z,Z) =     44.35844909
@ B-freq = 0.025378  C-freq = 0.006345     beta(Z;Z,Z) =     -0.00000000
@ B-freq = 0.000000  C-freq = 0.012689     beta(X;X,Z) = beta(X,Z,X)
@ B-freq = 0.000000  C-freq = 0.012689     beta(Y;X,Z) = beta(Y,Z,X)
@ B-freq = 0.000000  C-freq = 0.012689     beta(Z;X,Z) = beta(Z,Z,X)
@ B-freq = 0.006345  C-freq = 0.012689     beta(X;X,Z) = beta(X,Z,X)
@ B-freq = 0.006345  C-freq = 0.012689     beta(Y;X,Z) = beta(Y,Z,X)
@ B-freq = 0.006345  C-freq = 0.012689     beta(Z;X,Z) = beta(Z,Z,X)
@ B-freq = 0.012689  C-freq = 0.012689     beta(X;X,Z) = beta(X,Z,X)
@ B-freq = 0.012689  C-freq = 0.012689     beta(Y;X,Z) = beta(Y,Z,X)
@ B-freq = 0.012689  C-freq = 0.012689     beta(Z;X,Z) = beta(Z,Z,X)
@ B-freq = 0.019034  C-freq = 0.012689     beta(X;X,Z) = beta(X,Z,X)
@ B-freq = 0.019034  C-freq = 0.012689     beta(Y;X,Z) = beta(Y,Z,X)
@ B-freq = 0.019034  C-freq = 0.012689     beta(Z;X,Z) = beta(Z,Z,X)
@ B-freq = 0.025378  C-freq = 0.012689     beta(X;X,Z) = beta(X,Z,X)
@ B-freq = 0.025378  C-freq = 0.012689     beta(Y;X,Z) = beta(Y,Z,X)
@ B-freq = 0.025378  C-freq = 0.012689     beta(Z;X,Z) = beta(Z,Z,X)
@ B-freq = 0.000000  C-freq = 0.012689     beta(X;Y,Z) = beta(X,Z,Y)
@ B-freq = 0.000000  C-freq = 0.012689     beta(Y;Y,Z) = beta(Y,Z,Y)
@ B-freq = 0.000000  C-freq = 0.012689     beta(Z;Y,Z) = beta(Z,Z,Y)
@ B-freq = 0.006345  C-freq = 0.012689     beta(X;Y,Z) = beta(X,Z,Y)
@ B-freq = 0.006345  C-freq = 0.012689     beta(Y;Y,Z) = beta(Y,Z,Y)
@ B-freq = 0.006345  C-freq = 0.012689     beta(Z;Y,Z) = beta(Z,Z,Y)
@ B-freq = 0.012689  C-freq = 0.012689     beta(X;Y,Z) = beta(X,Z,Y)
@ B-freq = 0.012689  C-freq = 0.012689     beta(Y;Y,Z) = beta(Y,Z,Y)
@ B-freq = 0.012689  C-freq = 0.012689     beta(Z;Y,Z) = beta(Z,Z,Y)
@ B-freq = 0.019034  C-freq = 0.012689     beta(X;Y,Z) = beta(X,Z,Y)
@ B-freq = 0.019034  C-freq = 0.012689     beta(Y;Y,Z) = beta(Y,Z,Y)
@ B-freq = 0.019034  C-freq = 0.012689     beta(Z;Y,Z) = beta(Z,Z,Y)
@ B-freq = 0.025378  C-freq = 0.012689     beta(X;Y,Z) = beta(X,Z,Y)
@ B-freq = 0.025378  C-freq = 0.012689     beta(Y;Y,Z) = beta(Y,Z,Y)
@ B-freq = 0.025378  C-freq = 0.012689     beta(Z;Y,Z) = beta(Z,Z,Y)
@ B-freq = 0.000000  C-freq = 0.012689     beta(X;Z,Z) = beta(X,Z,Z)
@ B-freq = 0.000000  C-freq = 0.012689     beta(Y;Z,Z) = beta(Y,Z,Z)
@ B-freq = 0.000000  C-freq = 0.012689     beta(Z;Z,Z) = beta(Z,Z,Z)
@ B-freq = 0.006345  C-freq = 0.012689     beta(X;Z,Z) = beta(X,Z,Z)
@ B-freq = 0.006345  C-freq = 0.012689     beta(Y;Z,Z) = beta(Y,Z,Z)
@ B-freq = 0.006345  C-freq = 0.012689     beta(Z;Z,Z) = beta(Z,Z,Z)
@ B-freq = 0.012689  C-freq = 0.012689     beta(X;Z,Z) =     22.84534588
@ B-freq = 0.012689  C-freq = 0.012689     beta(Y;Z,Z) =     43.98482839
@ B-freq = 0.012689  C-freq = 0.012689     beta(Z;Z,Z) =     -0.00000000
@ B-freq = 0.019034  C-freq = 0.012689     beta(X;Z,Z) =     23.01181067
@ B-freq = 0.019034  C-freq = 0.012689     beta(Y;Z,Z) =     44.33459442
@ B-freq = 0.019034  C-freq = 0.012689     beta(Z;Z,Z) =     -0.00000000
@ B-freq = 0.025378  C-freq = 0.012689     beta(X;Z,Z) =     23.22130585
@ B-freq = 0.025378  C-freq = 0.012689     beta(Y;Z,Z) =     44.77354515
@ B-freq = 0.025378  C-freq = 0.012689     beta(Z;Z,Z) =     -0.00000000
@ B-freq = 0.000000  C-freq = 0.019034     beta(X;X,Z) = beta(X,Z,X)
@ B-freq = 0.000000  C-freq = 0.019034     beta(Y;X,Z) = beta(Y,Z,X)
@ B-freq = 0.000000  C-freq = 0.019034     beta(Z;X,Z) = beta(Z,Z,X)
@ B-freq = 0.006345  C-freq = 0.019034     beta(X;X,Z) = beta(X,Z,X)
@ B-freq = 0.006345  C-freq = 0.019034     beta(Y;X,Z) = beta(Y,Z,X)
@ B-freq = 0.006345  C-freq = 0.019034     beta(Z;X,Z) = beta(Z,Z,X)
@ B-freq = 0.012689  C-freq = 0.019034     beta(X;X,Z) = beta(X,Z,X)
@ B-freq = 0.012689  C-freq = 0.019034     beta(Y;X,Z) = beta(Y,Z,X)
@ B-freq = 0.012689  C-freq = 0.019034     beta(Z;X,Z) = beta(Z,Z,X)
@ B-freq = 0.019034  C-freq = 0.019034     beta(X;X,Z) = beta(X,Z,X)
@ B-freq = 0.019034  C-freq = 0.019034     beta(Y;X,Z) = beta(Y,Z,X)
@ B-freq = 0.019034  C-freq = 0.019034     beta(Z;X,Z) = beta(Z,Z,X)
@ B-freq = 0.025378  C-freq = 0.019034     beta(X;X,Z) = beta(X,Z,X)
@ B-freq = 0.025378  C-freq = 0.019034     beta(Y;X,Z) = beta(Y,Z,X)
@ B-freq = 0.025378  C-freq = 0.019034     beta(Z;X,Z) = beta(Z,Z,X)
@ B-freq = 0.000000  C-freq = 0.019034     beta(X;Y,Z) = beta(X,Z,Y)
@ B-freq = 0.000000  C-freq = 0.019034     beta(Y;Y,Z) = beta(Y,Z,Y)
@ B-freq = 0.000000  C-freq = 0.019034     beta(Z;Y,Z) = beta(Z,Z,Y)
@ B-freq = 0.006345  C-freq = 0.019034     beta(X;Y,Z) = beta(X,Z,Y)
@ B-freq = 0.006345  C-freq = 0.019034     beta(Y;Y,Z) = beta(Y,Z,Y)
@ B-freq = 0.006345  C-freq = 0.019034     beta(Z;Y,Z) = beta(Z,Z,Y)
@ B-freq = 0.012689  C-freq = 0.019034     beta(X;Y,Z) = beta(X,Z,Y)
@ B-freq = 0.012689  C-freq = 0.019034     beta(Y;Y,Z) = beta(Y,Z,Y)
@ B-freq = 0.012689  C-freq = 0.019034     beta(Z;Y,Z) = beta(Z,Z,Y)
@ B-freq = 0.019034  C-freq = 0.019034     beta(X;Y,Z) = beta(X,Z,Y)
@ B-freq = 0.019034  C-freq = 0.019034     beta(Y;Y,Z) = beta(Y,Z,Y)
@ B-freq = 0.019034  C-freq = 0.019034     beta(Z;Y,Z) = beta(Z,Z,Y)
@ B-freq = 0.025378  C-freq = 0.019034     beta(X;Y,Z) = beta(X,Z,Y)
@ B-freq = 0.025378  C-freq = 0.019034     beta(Y;Y,Z) = beta(Y,Z,Y)
@ B-freq = 0.025378  C-freq = 0.019034     beta(Z;Y,Z) = beta(Z,Z,Y)
@ B-freq = 0.000000  C-freq = 0.019034     beta(X;Z,Z) = beta(X,Z,Z)
@ B-freq = 0.000000  C-freq = 0.019034     beta(Y;Z,Z) = beta(Y,Z,Z)
@ B-freq = 0.000000  C-freq = 0.019034     beta(Z;Z,Z) = beta(Z,Z,Z)
@ B-freq = 0.006345  C-freq = 0.019034     beta(X;Z,Z) = beta(X,Z,Z)
@ B-freq = 0.006345  C-freq = 0.019034     beta(Y;Z,Z) = beta(Y,Z,Z)
@ B-freq = 0.006345  C-freq = 0.019034     beta(Z;Z,Z) = beta(Z,Z,Z)
@ B-freq = 0.012689  C-freq = 0.019034     beta(X;Z,Z) = beta(X,Z,Z)
@ B-freq = 0.012689  C-freq = 0.019034     beta(Y;Z,Z) = beta(Y,Z,Z)
@ B-freq = 0.012689  C-freq = 0.019034     beta(Z;Z,Z) = beta(Z,Z,Z)
@ B-freq = 0.019034  C-freq = 0.019034     beta(X;Z,Z) =     23.21415012
@ B-freq = 0.019034  C-freq = 0.019034     beta(Y;Z,Z) =     44.76193051
@ B-freq = 0.019034  C-freq = 0.019034     beta(Z;Z,Z) =     -0.00000000
@ B-freq = 0.025378  C-freq = 0.019034     beta(X;Z,Z) =     23.46143453
@ B-freq = 0.025378  C-freq = 0.019034     beta(Y;Z,Z) =     45.28283373
@ B-freq = 0.025378  C-freq = 0.019034     beta(Z;Z,Z) =     -0.00000000
@ B-freq = 0.000000  C-freq = 0.025378     beta(X;X,Z) = beta(X,Z,X)
@ B-freq = 0.000000  C-freq = 0.025378     beta(Y;X,Z) = beta(Y,Z,X)
@ B-freq = 0.000000  C-freq = 0.025378     beta(Z;X,Z) = beta(Z,Z,X)
@ B-freq = 0.006345  C-freq = 0.025378     beta(X;X,Z) = beta(X,Z,X)
@ B-freq = 0.006345  C-freq = 0.025378     beta(Y;X,Z) = beta(Y,Z,X)
@ B-freq = 0.006345  C-freq = 0.025378     beta(Z;X,Z) = beta(Z,Z,X)
@ B-freq = 0.012689  C-freq = 0.025378     beta(X;X,Z) = beta(X,Z,X)
@ B-freq = 0.012689  C-freq = 0.025378     beta(Y;X,Z) = beta(Y,Z,X)
@ B-freq = 0.012689  C-freq = 0.025378     beta(Z;X,Z) = beta(Z,Z,X)
@ B-freq = 0.019034  C-freq = 0.025378     beta(X;X,Z) = beta(X,Z,X)
@ B-freq = 0.019034  C-freq = 0.025378     beta(Y;X,Z) = beta(Y,Z,X)
@ B-freq = 0.019034  C-freq = 0.025378     beta(Z;X,Z) = beta(Z,Z,X)
@ B-freq = 0.025378  C-freq = 0.025378     beta(X;X,Z) = beta(X,Z,X)
@ B-freq = 0.025378  C-freq = 0.025378     beta(Y;X,Z) = beta(Y,Z,X)
@ B-freq = 0.025378  C-freq = 0.025378     beta(Z;X,Z) = beta(Z,Z,X)
@ B-freq = 0.000000  C-freq = 0.025378     beta(X;Y,Z) = beta(X,Z,Y)
@ B-freq = 0.000000  C-freq = 0.025378     beta(Y;Y,Z) = beta(Y,Z,Y)
@ B-freq = 0.000000  C-freq = 0.025378     beta(Z;Y,Z) = beta(Z,Z,Y)
@ B-freq = 0.006345  C-freq = 0.025378     beta(X;Y,Z) = beta(X,Z,Y)
@ B-freq = 0.006345  C-freq = 0.025378     beta(Y;Y,Z) = beta(Y,Z,Y)
@ B-freq = 0.006345  C-freq = 0.025378     beta(Z;Y,Z) = beta(Z,Z,Y)
@ B-freq = 0.012689  C-freq = 0.025378     beta(X;Y,Z) = beta(X,Z,Y)
@ B-freq = 0.012689  C-freq = 0.025378     beta(Y;Y,Z) = beta(Y,Z,Y)
@ B-freq = 0.012689  C-freq = 0.025378     beta(Z;Y,Z) = beta(Z,Z,Y)
@ B-freq = 0.019034  C-freq = 0.025378     beta(X;Y,Z) = beta(X,Z,Y)
@ B-freq = 0.019034  C-freq = 0.025378     beta(Y;Y,Z) = beta(Y,Z,Y)
@ B-freq = 0.019034  C-freq = 0.025378     beta(Z;Y,Z) = beta(Z,Z,Y)
@ B-freq = 0.025378  C-freq = 0.025378     beta(X;Y,Z) = beta(X,Z,Y)
@ B-freq = 0.025378  C-freq = 0.025378     beta(Y;Y,Z) = beta(Y,Z,Y)
@ B-freq = 0.025378  C-freq = 0.025378     beta(Z;Y,Z) = beta(Z,Z,Y)
@ B-freq = 0.000000  C-freq = 0.025378     beta(X;Z,Z) = beta(X,Z,Z)
@ B-freq = 0.000000  C-freq = 0.025378     beta(Y;Z,Z) = beta(Y,Z,Z)
@ B-freq = 0.000000  C-freq = 0.025378     beta(Z;Z,Z) = beta(Z,Z,Z)
@ B-freq = 0.006345  C-freq = 0.025378     beta(X;Z,Z) = beta(X,Z,Z)
@ B-freq = 0.006345  C-freq = 0.025378     beta(Y;Z,Z) = beta(Y,Z,Z)
@ B-freq = 0.006345  C-freq = 0.025378     beta(Z;Z,Z) = beta(Z,Z,Z)
@ B-freq = 0.012689  C-freq = 0.025378     beta(X;Z,Z) = beta(X,Z,Z)
@ B-freq = 0.012689  C-freq = 0.025378     beta(Y;Z,Z) = beta(Y,Z,Z)
@ B-freq = 0.012689  C-freq = 0.025378     beta(Z;Z,Z) = beta(Z,Z,Z)
@ B-freq = 0.019034  C-freq = 0.025378     beta(X;Z,Z) = beta(X,Z,Z)
@ B-freq = 0.019034  C-freq = 0.025378     beta(Y;Z,Z) = beta(Y,Z,Z)
@ B-freq = 0.019034  C-freq = 0.025378     beta(Z;Z,Z) = beta(Z,Z,Z)
@ B-freq = 0.025378  C-freq = 0.025378     beta(X;Z,Z) =     23.74886156
@ B-freq = 0.025378  C-freq = 0.025378     beta(Y;Z,Z) =     45.89109818
@ B-freq = 0.025378  C-freq = 0.025378     beta(Z;Z,Z) =     -0.00000000

  Total CPU  time used in RESPONSE:  56.44 seconds
  Total wall time used in RESPONSE:  56.78 seconds


                   .-------------------------------------------.
                   | End of Dynamic Property Section (RESPONS) |
                   `-------------------------------------------'

  Total CPU  time used in DALTON:  1 minute   1 second 
  Total wall time used in DALTON:  1 minute   1 second 

 
     Date and time (Linux)  : Sat Jul 27 18:19:54 2024
     Host name              : dn006                                   
