

     ************************************************************************
     *************** Dalton - An Electronic Structure Program ***************
     ************************************************************************

    This is output from DALTON release Dalton2020.0 (2020)
         ( Web site: http://daltonprogram.org )

   ----------------------------------------------------------------------------

    NOTE:
     
    Dalton is an experimental code for the evaluation of molecular
    properties using (MC)SCF, DFT, CI, and CC wave functions.
    The authors accept no responsibility for the performance of
    the code or for the correctness of the results.
     
    The code (in whole or part) is provided under a licence and
    is not to be reproduced for further distribution without
    the written permission of the authors or their representatives.
     
    See the home page "http://daltonprogram.org" for further information.
     
    If results obtained with this code are published,
    the appropriate citations would be both of:
     
       K. Aidas, C. Angeli, K. L. Bak, V. Bakken, R. Bast,
       L. Boman, O. Christiansen, R. Cimiraglia, S. Coriani,
       P. Dahle, E. K. Dalskov, U. Ekstroem,
       T. Enevoldsen, J. J. Eriksen, P. Ettenhuber, B. Fernandez,
       L. Ferrighi, H. Fliegl, L. Frediani, K. Hald, A. Halkier,
       C. Haettig, H. Heiberg, T. Helgaker, A. C. Hennum,
       H. Hettema, E. Hjertenaes, S. Hoest, I.-M. Hoeyvik,
       M. F. Iozzi, B. Jansik, H. J. Aa. Jensen, D. Jonsson,
       P. Joergensen, J. Kauczor, S. Kirpekar,
       T. Kjaergaard, W. Klopper, S. Knecht, R. Kobayashi, H. Koch,
       J. Kongsted, A. Krapp, K. Kristensen, A. Ligabue,
       O. B. Lutnaes, J. I. Melo, K. V. Mikkelsen, R. H. Myhre,
       C. Neiss, C. B. Nielsen, P. Norman, J. Olsen,
       J. M. H. Olsen, A. Osted, M. J. Packer, F. Pawlowski,
       T. B. Pedersen, P. F. Provasi, S. Reine, Z. Rinkevicius,
       T. A. Ruden, K. Ruud, V. Rybkin, P. Salek, C. C. M. Samson,
       A. Sanchez de Meras, T. Saue, S. P. A. Sauer,
       B. Schimmelpfennig, K. Sneskov, A. H. Steindal,
       K. O. Sylvester-Hvid, P. R. Taylor, A. M. Teale,
       E. I. Tellgren, D. P. Tew, A. J. Thorvaldsen, L. Thoegersen,
       O. Vahtras, M. A. Watson, D. J. D. Wilson, M. Ziolkowski
       and H. Agren,
       "The Dalton quantum chemistry program system",
       WIREs Comput. Mol. Sci. 2014, 4:269–284 (doi: 10.1002/wcms.1172)
     
    and
     
       Dalton, a molecular electronic structure program,
       Release Dalton2020.0 (2020), see http://daltonprogram.org
   ----------------------------------------------------------------------------

    Authors in alphabetical order (Major contribution(s) in parenthesis):

  Kestutis Aidas,           Vilnius University,           Lithuania   (QM/MM)
  Celestino Angeli,         University of Ferrara,        Italy       (NEVPT2)
  Keld L. Bak,              UNI-C,                        Denmark     (AOSOPPA, non-adiabatic coupling, magnetic properties)
  Vebjoern Bakken,          University of Oslo,           Norway      (DALTON; geometry optimizer, symmetry detection)
  Radovan Bast,             UiT The Arctic U. of Norway,  Norway      (DALTON installation and execution frameworks)
  Pablo Baudin,             University of Valencia,       Spain       (Cholesky excitation energies)
  Linus Boman,              NTNU,                         Norway      (Cholesky decomposition and subsystems)
  Bruno N. Cabral Tenorio,  Technical Univ. of Denmark,   Denmark     (Lanczos-based CC methods)
  Ove Christiansen,         Aarhus University,            Denmark     (CC module)
  Renzo Cimiraglia,         University of Ferrara,        Italy       (NEVPT2)
  Sonia Coriani,            Technical Univ. of Denmark,   Denmark     (CC and RESPONS modules)
  Janusz Cukras,            University of Warsaw,         Poland      (MChD in RESPONS)
  Paal Dahle,               University of Oslo,           Norway      (Parallelization)
  Erik K. Dalskov,          UNI-C,                        Denmark     (SOPPA)
  Thomas Enevoldsen,        Univ. of Southern Denmark,    Denmark     (SOPPA)
  Janus J. Eriksen,         Aarhus University,            Denmark     (Polarizable embedding, TDA)
  Rasmus Faber,             Technical Univ. of Denmark,   Denmark     (Vib.avg. NMR w. SOPPA, parallel AO-SOPPA, CVS-CC and EOMCC)
  Tobias Fahleson,          KTH Stockholm,                Sweden      (Damped cubic response)
  Berta Fernandez,          U. of Santiago de Compostela, Spain       (Doublet spin, ESR in RESPONS)
  Lara Ferrighi,            Aarhus University,            Denmark     (PCM Cubic response)
  Heike Fliegl,             University of Oslo,           Norway      (CCSD(R12))
  Luca Frediani,            UiT The Arctic U. of Norway,  Norway      (PCM)
  Emmanuel Fromager,        Univ. Strasbourg,             France      (MC-srDFT)
  Bin Gao,                  UiT The Arctic U. of Norway,  Norway      (Gen1Int library)
  Andre S. P. Gomes,        CNRS/Universite de Lille,     France      (Frozen density embedding)
  Christof Haettig,         Ruhr-University Bochum,       Germany     (CC module)
  Kasper Hald,              Aarhus University,            Denmark     (CC module)
  Asger Halkier,            Aarhus University,            Denmark     (CC module)
  Frederik Beyer Hansen,    University of Copenhagen,     Denmark     (Parallel AO-SOPPA)
  Erik D. Hedegaard,        Univ. of Southern Denmark,    Denmark     (Polarizable embedding, QM/MM, and MC-srDFT)
  Hanne Heiberg,            University of Oslo,           Norway      (Geometry analysis, selected one-electron integrals)
  Trygve Helgaker,          University of Oslo,           Norway      (DALTON; ABACUS, ERI, DFT modules, London, and much more)
  Alf Christian Hennum,     University of Oslo,           Norway      (Parity violation)
  Hinne Hettema,            University of Auckland,       New Zealand (Quadratic response in RESPONS; SIRIUS supersymmetry)
  Eirik Hjertenaes,         NTNU,                         Norway      (Cholesky decomposition)
  Pi A. B. Haase,           University of Copenhagen,     Denmark     (Triplet AO-SOPPA)
  Maria Francesca Iozzi,    University of Oslo,           Norway      (RPA)
  Christoph Jacob           TU Braunschweig               Germany     (Frozen density embedding)
  Brano Jansik              Technical Univ. of Ostrava    Czech Rep.  (DFT cubic response)
  Hans Joergen Aa. Jensen,  Univ. of Southern Denmark,    Denmark     (DALTON; SIRIUS, RESPONS, ABACUS, MC-srDFT, and much more)
  Dan Jonsson,              UiT The Arctic U. of Norway,  Norway      (Cubic response in RESPONS module)
  Poul Joergensen,          Aarhus University,            Denmark     (RESPONS, ABACUS, and CC modules)
  Maciej Kaminski,          University of Warsaw,         Poland      (CPPh in RESPONS)
  Joanna Kauczor,           Linkoeping University,        Sweden      (Complex polarization propagator (CPP) module)
  Sheela Kirpekar,          Univ. of Southern Denmark,    Denmark     (Mass-velocity & Darwin integrals)
  Erik Kjellgren,           Univ. of Southern Denmark,    Denmark     (MC-srDFT)
  Wim Klopper,              KIT Karlsruhe,                Germany     (R12 code in CC, SIRIUS, and ABACUS modules)
  Stefan Knecht,            ETH Zurich,                   Switzerland (Parallel CI and MCSCF, MC-srDFT)
  Rika Kobayashi,           Australian National Univ.,    Australia   (DIIS in CC, London in MCSCF)
  Henrik Koch,              NTNU,                         Norway      (CC module, Cholesky decomposition)
  Jacob Kongsted,           Univ. of Southern Denmark,    Denmark     (Polarizable embedding, polarizable density embedding, QM/MM)
  Andrea Ligabue,           University of Modena,         Italy       (CTOCD, AOSOPPA)
  Nanna H. List             Univ. of Southern Denmark,    Denmark     (Polarizable embedding)
  Ola B. Lutnaes,           University of Oslo,           Norway      (DFT Hessian)
  Juan I. Melo,             University of Buenos Aires,   Argentina   (LRESC, Relativistic Effects on NMR Shieldings)
  Kurt V. Mikkelsen,        University of Copenhagen,     Denmark     (MC-SCRF and QM/MM)
  Rolf H. Myhre,            NTNU,                         Norway      (Subsystems and CC3)
  Christian Neiss,          Univ. Erlangen-Nuernberg,     Germany     (CCSD(R12))
  Christian B. Nielsen,     University of Copenhagen,     Denmark     (QM/MM)
  Patrick Norman,           KTH Stockholm,                Sweden      (Cubic response and complex frequency response in RESPONS)
  Jeppe Olsen,              Aarhus University,            Denmark     (SIRIUS CI/density modules)
  Jogvan Magnus H. Olsen,   Aarhus University,            Denmark     (Polarizable embedding and polarizable density embedding)
  Anders Osted,             Copenhagen University,        Denmark     (QM/MM)
  Martin J. Packer,         University of Sheffield,      UK          (SOPPA)
  Filip Pawlowski,          Kazimierz Wielki University,  Poland      (CC3)
  Morten N. Pedersen,       Univ. of Southern Denmark,    Denmark     (Polarizable embedding)
  Thomas B. Pedersen,       University of Oslo,           Norway      (Cholesky decomposition)
  Patricio F. Provasi,      University of Northeastern,   Argentina   (Analysis of coupling constants in localized orbitals)
  Peter Reinholdt,          Univ. of Southern Denmark,    Denmark     (Polarizable embedding and polarizable density embedding)
  Zilvinas Rinkevicius,     KTH Stockholm,                Sweden      (open-shell DFT, ESR)
  Elias Rudberg,            KTH Stockholm,                Sweden      (DFT grid and basis info)
  Torgeir A. Ruden,         University of Oslo,           Norway      (Numerical derivatives in ABACUS)
  Kenneth Ruud,             UiT The Arctic U. of Norway,  Norway      (DALTON; ABACUS magnetic properties and much more)
  Pawel Salek,              KTH Stockholm,                Sweden      (DALTON; DFT code)
  Claire C. M. Samson       University of Karlsruhe       Germany     (Boys localization, r12 integrals in ERI)
  Alfredo Sanchez de Meras, University of Valencia,       Spain       (CC module, Cholesky decomposition)
  Trond Saue,               Paul Sabatier University,     France      (direct Fock matrix construction)
  Stephan P. A. Sauer,      University of Copenhagen,     Denmark     (SOPPA(CCSD), SOPPA prop., AOSOPPA, vibrational g-factors)
  Bernd Schimmelpfennig,    Forschungszentrum Karlsruhe,  Germany     (AMFI module)
  Anna K. Schnack-Petersen, University of Copenhagen,     Denmark     (RPA(D) and HRPA(D) properties in AOSOPPA)
  Kristian Sneskov,         Aarhus University,            Denmark     (Polarizable embedding, QM/MM)
  Arnfinn H. Steindal,      UiT The Arctic U. of Norway,  Norway      (parallel QM/MM, polarizable embedding)
  Casper Steinmann,         Aalborg University,           Denmark     (QFIT, polarizable embedding)
  K. O. Sylvester-Hvid,     University of Copenhagen,     Denmark     (MC-SCRF)
  Peter R. Taylor,          VLSCI/Univ. of Melbourne,     Australia   (Symmetry handling ABACUS, integral transformation)
  Andrew M. Teale,          University of Nottingham,     England     (DFT-AC, DFT-D)
  David P. Tew,             University of Bristol,        England     (CCSD(R12))
  Julien Toulouse,          Sorbonne Univ.,               France      (MC-srDFT)
  Olav Vahtras,             KTH Stockholm,                Sweden      (Triplet response, spin-orbit, ESR, TDDFT, open-shell DFT)
  Lucas Visscher,           Vrije Universiteit Amsterdam, Netherlands (Frozen density embedding)
  David J. Wilson,          La Trobe University,          Australia   (DFT Hessian and DFT magnetizabilities)
  Hans Agren,               KTH Stockholm,                Sweden      (SIRIUS module, RESPONS, MC-SCRF solvation)
 --------------------------------------------------------------------------------

     Date and time (Linux)  : Wed Sep 13 19:00:06 2023
     Host name              : sn-mem                                  

 * Work memory size             :    64000000 =  488.28 megabytes.

 * Directories for basis set searches:
   1) /gpfs/projects/rjh/adrian/august_no_symmetry/dalton/hf/NOCl/dipole
   2) /gpfs/projects/rjh/adrian/dalton/build/basis


Compilation information
-----------------------

 Who compiled             | ahurtado
 Host                     | sn-mem
 System                   | Linux-3.10.0-1160.24.1.el7.x86_64
 CMake generator          | Unix Makefiles
 Processor                | x86_64
 64-bit integers          | OFF
 MPI                      | ON
 Fortran compiler         | /gpfs/software/intel/oneAPI/2021_4/mpi/2021.4.0/bi
                          | n/mpif90
 Fortran compiler version | GNU Fortran (GCC) 11.2.0
 C compiler               | /gpfs/software/intel/oneAPI/2021_4/mpi/2021.4.0/bi
                          | n/mpicc
 C compiler version       | gcc (GCC) 11.2.0
 C++ compiler             | /gpfs/software/intel/oneAPI/2021_4/mpi/2021.4.0/bi
                          | n/mpicxx
 C++ compiler version     | unknown
 BLAS                     | /gpfs/software/intel/oneAPI/2021_4/mkl/2021.4.0/li
                          | b/intel64/libmkl_gf_lp64.so;/gpfs/software/intel/o
                          | neAPI/2021_4/mkl/2021.4.0/lib/intel64/libmkl_seque
                          | ntial.so;/gpfs/software/intel/oneAPI/2021_4/mkl/20
                          | 21.4.0/lib/intel64/libmkl_core.so;/usr/lib64/libpt
                          | hread.so;/usr/lib64/libm.so
 LAPACK                   | /gpfs/software/intel/oneAPI/2021_4/mkl/2021.4.0/li
                          | b/intel64/libmkl_lapack95_lp64.a;/gpfs/software/in
                          | tel/oneAPI/2021_4/mkl/2021.4.0/lib/intel64/libmkl_
                          | gf_lp64.so
 Static linking           | OFF
 Last Git revision        | 66052b3af5ea7225e31178bf9a8b031913c72190
 Git branch               | (HEAD detached at Dalton2020.0)
 Configuration time       | 2023-01-11 13:33:37.731835

 * MPI parallel run using 5 processes.


   Content of the .dal input file
 ----------------------------------

**DALTON INPUT
.RUN RESPONSE
.DIRECT
**WAVE FUNCTIONS
.HF
**PROPERTIES
**RESPONSE
*QUADRA
.DIPLEN
.FREQUENCIES
5
0.0 0.0063445625 0.012689125 0.0190336875 0.02537825
**END OF DALTON INPUT


   Content of the .mol file
 ----------------------------

BASIS
aug-cc-pVQZ
blah
blah
Atomtype=3 Angstrom Charge=0 Nosymmmetry
Charge=17 Atoms=1
Cl_a -0.531200001141 -0.929799999232 0.000000000000
Charge=7 Atoms=1
N_a 0.000000000000 0.972399997674 0.000000000000
Charge=8 Atoms=1
O_a 1.128700001162 1.124999999397 0.000000000000


       *******************************************************************
       *********** Output from DALTON general input processing ***********
       *******************************************************************

 --------------------------------------------------------------------------------
   Overall default print level:    0
   Print level for DALTON.STAT:    1

    Parallel calculation using MPI
    AO-direct calculation (in sections where implemented)
    HERMIT 1- and 2-electron integral sections will be executed
    "Old" integral transformation used (limited to max 255 basis functions)
    Wave function sections will be executed (SIRIUS module)
    Dynamic molecular response properties section will be executed (RESPONSE module)
 --------------------------------------------------------------------------------


   ****************************************************************************
   *************** Output of molecule and basis set information ***************
   ****************************************************************************


    The two title cards from your ".mol" input:
    ------------------------------------------------------------------------
 1: blah                                                                    
 2: blah                                                                    
    ------------------------------------------------------------------------

  Coordinates are entered in Angstrom and converted to atomic units.
          - Conversion factor : 1 bohr = 0.52917721 A

  Atomic type no.    1
  --------------------
  Nuclear charge:  17.00000
  Number of symmetry independent centers:    1
  Number of basis sets to read;    2
  Basis set file used for this atomic type with Z =  17 :
     "/gpfs/projects/rjh/adrian/dalton/build/basis/aug-cc-pVQZ"

  Atomic type no.    2
  --------------------
  Nuclear charge:   7.00000
  Number of symmetry independent centers:    1
  Number of basis sets to read;    2
  Basis set file used for this atomic type with Z =   7 :
     "/gpfs/projects/rjh/adrian/dalton/build/basis/aug-cc-pVQZ"

  Atomic type no.    3
  --------------------
  Nuclear charge:   8.00000
  Number of symmetry independent centers:    1
  Number of basis sets to read;    2
  Basis set file used for this atomic type with Z =   8 :
     "/gpfs/projects/rjh/adrian/dalton/build/basis/aug-cc-pVQZ"


                         SYMGRP: Point group information
                         -------------------------------

@    Point group: C1 


                                 Isotopic Masses
                                 ---------------

                           Cl_a       34.968853
                           N_a        14.003074
                           O_a        15.994915

                       Total mass:    64.966842 amu
                       Natural abundance:  75.308 %

 Center-of-mass coordinates (a.u.):   -0.015184   -0.026271    0.000000
 Center-of-mass coordinates (Angs):   -0.008035   -0.013902    0.000000


  Atoms and basis sets
  --------------------

  Number of atom types :    3
  Total number of atoms:    3

  Basis set used is "aug-cc-pVQZ" from the basis set library.

  label    atoms   charge   prim   cont     basis
  ----------------------------------------------------------------------
  Cl          1   17.0000   112    84      [17s12p4d3f2g|7s6p4d3f2g]                          
  N_          1    7.0000    93    80      [13s7p4d3f2g|6s5p4d3f2g]                           
  O_          1    8.0000    93    80      [13s7p4d3f2g|6s5p4d3f2g]                           
  ----------------------------------------------------------------------
  total:      3   32.0000   298   244
  ----------------------------------------------------------------------
  Spherical harmonic basis used.

  Threshold for neglecting AO integrals:  1.00D-12


  Cartesian Coordinates (a.u.)
  ----------------------------

  Total number of coordinates:    9
  Cl_a    :     1  x  -1.0038225198    2  y  -1.7570673496    3  z   0.0000000000
  N_a     :     4  x   0.0000000000    5  y   1.8375696795    6  z   0.0000000000
  O_a     :     7  x   2.1329338795    8  y   2.1259418895    9  z   0.0000000000


   Interatomic separations (in Angstrom):
   --------------------------------------

            Cl_a        N_a         O_a   
            ------      ------      ------
 Cl_a  :    0.000000
 N_a   :    1.974978    0.000000
 O_a   :    2.641490    1.138969    0.000000


  Max    interatomic separation is    2.6415 Angstrom (    4.9917 Bohr)
  between atoms    3 and    1, "O_a   " and "Cl_a  ".

  Min YX interatomic separation is    1.1390 Angstrom (    2.1523 Bohr)


  Bond distances (Angstrom):
  --------------------------

                  atom 1     atom 2       distance
                  ------     ------       --------
  bond distance:  N_a        Cl_a         1.974978
  bond distance:  O_a        N_a          1.138969


  Bond angles (degrees):
  ----------------------

                  atom 1     atom 2     atom 3         angle
                  ------     ------     ------         -----
  bond angle:     Cl_a       N_a        O_a          113.302




 Principal moments of inertia (u*A**2) and principal axes
 --------------------------------------------------------

   IA       5.840433          0.544616    0.838686    0.000000
   IB      88.102929          0.838686   -0.544616    0.000000
   IC      93.943362          0.000000    0.000000    1.000000


 Rotational constants
 --------------------

@    The molecule is planar.

               A                   B                   C

          86531.0810           5736.2339           5379.6138 MHz
            2.886366            0.191340            0.179445 cm-1


@  Nuclear repulsion energy :   85.148419784453 Hartree


                     .---------------------------------------.
                     | Starting in Integral Section (HERMIT) |
                     `---------------------------------------'



 ***************************************************************************************
 ****************** Output from **INTEGRALS input processing (HERMIT) ******************
 ***************************************************************************************


 - Using defaults, no **INTEGRALS input found

 Default print level:        1

 Calculation of one-electron Hamiltonian integrals.

 Center of mass  (bohr):     -0.015183530523     -0.026271029737      0.000000000000
 Operator center (bohr):      0.000000000000      0.000000000000      0.000000000000
 Gauge origin    (bohr):      0.000000000000      0.000000000000      0.000000000000
 Dipole origin   (bohr):      0.000000000000      0.000000000000      0.000000000000


     ************************************************************************
     ************************** Output from HERINT **************************
     ************************************************************************



                      Nuclear contribution to dipole moments
                      --------------------------------------

                 au               Debye          C m (/(10**-30)

      x     -0.00151180        -0.00384261        -0.01281757
      y      0.00037793         0.00096060         0.00320422
      z      0.00000000         0.00000000         0.00000000


  Time used in GABGEN     is       0.77 seconds
  Total CPU  time used in HERMIT:   1.14 seconds
  Total wall time used in HERMIT:   1.15 seconds


                        .----------------------------------.
                        | End of Integral Section (HERMIT) |
                        `----------------------------------'



                   .--------------------------------------------.
                   | Starting in Wave Function Section (SIRIUS) |
                   `--------------------------------------------'


 *** Output from Huckel module :

     Using EWMO model:          T
     Using EHT  model:          F
     Number of Huckel orbitals each symmetry:   24

 EWMO - Energy Weighted Maximum Overlap - is a Huckel type method,
        which normally is better than Extended Huckel Theory.
 Reference: Linderberg and Ohrn, Propagators in Quantum Chemistry (Wiley, 1973)

 Huckel EWMO eigenvalues for symmetry :  1
         -104.883930     -20.685569     -15.673202     -10.608489      -8.072407
           -8.072214      -8.072213      -1.708026      -1.175229      -0.898477
           -0.756044      -0.739435      -0.598849      -0.506247      -0.484719
           -0.442076      -0.370251      -0.309233      -0.187242      -0.055540
           -0.055527      -0.054317      -0.054072      -0.050572

 **********************************************************************
 *SIRIUS* a direct, restricted step, second order MCSCF program       *
 **********************************************************************

 
     Date and time (Linux)  : Wed Sep 13 19:00:08 2023
     Host name              : sn-mem                                  

 Title lines from ".mol" input file:
     blah                                                                    
     blah                                                                    

 Print level on unit LUPRI =   2 is   0
 Print level on unit LUW4  =   2 is   5

@    Restricted, closed shell Hartree-Fock calculation.

@    Time-dependent Hartree-Fock calculation (random phase approximation).
 Fock matrices are calculated directly and in parallel without use of integrals on disk.

 Initial molecular orbitals are obtained according to
 ".MOSTART EWMO  " input option

     Wave function specification
     ============================
@    Wave function type        --- HF ---
@    Number of closed shell electrons          32
@    Number of electrons in active shells       0
@    Total charge of the molecule               0

@    Spin multiplicity and 2 M_S                1         0
@    Total number of symmetries                 1 (point group: C1 )
@    Reference state symmetry                   1 (irrep name : A  )

     Orbital specifications
     ======================
@    Abelian symmetry species          All |    1
@                                          |  A  
                                       --- |  ---
@    Occupied SCF orbitals              16 |   16
@    Secondary orbitals                228 |  228
@    Total number of orbitals          244 |  244
@    Number of basis functions         244 |  244

     Optimization information
     ========================
@    Number of configurations                 1
@    Number of orbital rotations           3648
     ------------------------------------------
@    Total number of variables             3649

     Maximum number of Fock   iterations      0
     Maximum number of DIIS   iterations     60
     Maximum number of QC-SCF iterations     60
     Threshold for SCF convergence     1.00D-05


 ***********************************************
 ***** DIIS acceleration of SCF iterations *****
 ***********************************************

 C1-DIIS algorithm; max error vectors =    8

 Iter      Total energy        Error norm    Delta(E)  DIIS dim.
 -----------------------------------------------------------------------------
   1  Screening settings (-IFTHRS, JTDIIS, DIFDEN, times)   -8    1    T  1.26D+01  1.27D+01
@  1    -588.372769928        2.86688D+00   -5.88D+02    1
      Virial theorem: -V/T =      2.000718
@    MULPOP   Cl_a   -0.13; N_a     0.89; O_a    -0.76; 
   1  Level shift: doubly occupied orbital energies shifted by -2.00D-01
 -----------------------------------------------------------------------------
   2  Screening settings (-IFTHRS, JTDIIS, DIFDEN, times)   -8    2    T  1.24D+01  1.24D+01
@  2    -588.713935097        1.13318D+00   -3.41D-01    2
      Virial theorem: -V/T =      2.000129
@    MULPOP   Cl_a    0.00; N_a     0.06; O_a    -0.06; 
   2  Level shift: doubly occupied orbital energies shifted by -1.00D-01
 -----------------------------------------------------------------------------
   3  Screening settings (-IFTHRS, JTDIIS, DIFDEN, times)   -8    3    T  1.22D+01  1.23D+01
@  3    -588.771196955        3.87477D-01   -5.73D-02    3
      Virial theorem: -V/T =      2.000137
@    MULPOP   Cl_a   -0.15; N_a     0.45; O_a    -0.30; 
   3  Level shift: doubly occupied orbital energies shifted by -5.00D-02
 -----------------------------------------------------------------------------
   4  Screening settings (-IFTHRS, JTDIIS, DIFDEN, times)  -12    4    F  1.22D+01  1.23D+01
@  4    -588.779596382        1.09611D-01   -8.40D-03    4
      Virial theorem: -V/T =      2.000703
@    MULPOP   Cl_a   -0.16; N_a     0.37; O_a    -0.21; 
   4  Level shift: doubly occupied orbital energies shifted by -2.50D-02
 -----------------------------------------------------------------------------
   5  Screening settings (-IFTHRS, JTDIIS, DIFDEN, times)  -12    5    T  1.18D+01  1.18D+01
@  5    -588.780807437        3.90284D-02   -1.21D-03    5
      Virial theorem: -V/T =      2.000510
@    MULPOP   Cl_a   -0.16; N_a     0.39; O_a    -0.22; 
   5  Level shift: doubly occupied orbital energies shifted by -1.25D-02
 -----------------------------------------------------------------------------
   6  Screening settings (-IFTHRS, JTDIIS, DIFDEN, times)  -12    6    T  1.19D+01  1.19D+01
@  6    -588.781024139        1.69748D-02   -2.17D-04    6
      Virial theorem: -V/T =      2.000509
@    MULPOP   Cl_a   -0.18; N_a     0.40; O_a    -0.22; 
 -----------------------------------------------------------------------------
   7  Screening settings (-IFTHRS, JTDIIS, DIFDEN, times)  -12    7    T  1.23D+01  1.25D+01
@  7    -588.781087808        6.25132D-03   -6.37D-05    7
      Virial theorem: -V/T =      2.000529
@    MULPOP   Cl_a   -0.18; N_a     0.40; O_a    -0.22; 
 -----------------------------------------------------------------------------
   8  Screening settings (-IFTHRS, JTDIIS, DIFDEN, times)  -12    8    T  1.29D+01  1.29D+01
@  8    -588.781098551        2.68288D-03   -1.07D-05    8
      Virial theorem: -V/T =      2.000517
@    MULPOP   Cl_a   -0.18; N_a     0.40; O_a    -0.22; 
 -----------------------------------------------------------------------------
   9  Screening settings (-IFTHRS, JTDIIS, DIFDEN, times)  -12    9    T  1.24D+01  1.25D+01
@  9    -588.781100546        9.98230D-04   -2.00D-06    8
      Virial theorem: -V/T =      2.000518
@    MULPOP   Cl_a   -0.18; N_a     0.39; O_a    -0.22; 
 -----------------------------------------------------------------------------
  10  Screening settings (-IFTHRS, JTDIIS, DIFDEN, times)  -12   10    T  1.21D+01  1.22D+01
@ 10    -588.781100834        3.38324D-04   -2.88D-07    8
      Virial theorem: -V/T =      2.000518
@    MULPOP   Cl_a   -0.18; N_a     0.39; O_a    -0.22; 
 -----------------------------------------------------------------------------
  11  Screening settings (-IFTHRS, JTDIIS, DIFDEN, times)  -12   11    T  1.19D+01  1.19D+01
@ 11    -588.781100870        1.33109D-04   -3.52D-08    8
      Virial theorem: -V/T =      2.000518
@    MULPOP   Cl_a   -0.17; N_a     0.39; O_a    -0.22; 
 -----------------------------------------------------------------------------
  12  Screening settings (-IFTHRS, JTDIIS, DIFDEN, times)  -12   12    T  1.25D+01  1.26D+01
@ 12    -588.781100874        4.40139D-05   -4.70D-09    8
      Virial theorem: -V/T =      2.000518
@    MULPOP   Cl_a   -0.17; N_a     0.39; O_a    -0.22; 
 -----------------------------------------------------------------------------
  13  Screening settings (-IFTHRS, JTDIIS, DIFDEN, times)  -12   13    T  1.16D+01  1.22D+01
@ 13    -588.781100875        2.38449D-05   -2.02D-10    8
      Virial theorem: -V/T =      2.000518
@    MULPOP   Cl_a   -0.17; N_a     0.39; O_a    -0.22; 
 -----------------------------------------------------------------------------
  14  Screening settings (-IFTHRS, JTDIIS, DIFDEN, times)  -12   14    T  1.25D+01  1.25D+01
@ 14    -588.781100875        6.04889D-06   -6.37D-11    8

@ *** DIIS converged in  14 iterations !
@     Converged SCF energy, gradient:   -588.781100874635    6.05D-06
    - total time used in SIRFCK :              0.00 seconds


 *** SCF orbital energy analysis ***

 Only the 20 lowest virtual orbital energies printed in each symmetry.

 Number of electrons :   32
 Orbital occupations :   16

 Sym       Hartree-Fock orbital energies

1 A    -104.83453617   -20.75557784   -15.85342882   -10.55888374    -8.02545327
         -8.02380214    -8.02371113    -1.68192286    -1.10522300    -0.96872838
         -0.77222739    -0.76376284    -0.72594889    -0.45895512    -0.45858329
         -0.43127948     0.03183985     0.04462984     0.06478726     0.08215014
          0.09181430     0.09753983     0.11991668     0.12590482     0.13316379
          0.15671362     0.16027553     0.18467776     0.22690181     0.26197264
          0.29145920     0.29495188     0.32630567     0.34979595     0.36464826
          0.37597610

    E(LUMO) :     0.03183985 au (symmetry 1)
  - E(HOMO) :    -0.43127948 au (symmetry 1)
  ------------------------------------------
    gap     :     0.46311933 au

 --- Writing SIRIFC interface file

 CPU and wall time for SCF :     173.344     174.961


                       .-----------------------------------.
                       | --- Final results from SIRIUS --- |
                       `-----------------------------------'


@    Spin multiplicity:           1
@    Spatial symmetry:            1 ( irrep  A   in C1  )
@    Total charge of molecule:    0

@    Final HF energy:            -588.781100874635                 
@    Nuclear repulsion:            85.148419784453
@    Electronic energy:          -673.929520659088

@    Final gradient norm:           0.000006048888

 
     Date and time (Linux)  : Wed Sep 13 19:03:03 2023
     Host name              : sn-mem                                  

File label for MO orbitals:  13Sep23   FOCKDIIS

 (Only coefficients > 0.0100 are printed.)

 Molecular orbitals for symmetry species 1  (A  )
 ------------------------------------------------

    Orbital         7        8        9       10       11       12       13
   3 Cl_a:1s    -0.0000  -0.0323  -0.7987   0.4786  -0.1505   0.2784   0.0000
   6 Cl_a:1s    -0.0000   0.0007   0.0089   0.0150  -0.0324   0.0494   0.0000
   7 Cl_a:1s    -0.0000  -0.0017   0.0044  -0.0023  -0.0363   0.0147   0.0000
   8 Cl_a:2px    0.9642   0.0015   0.0026   0.0007  -0.0026   0.0020   0.0000
   9 Cl_a:2py   -0.2541   0.0027   0.0089   0.0036  -0.0041   0.0101  -0.0000
  11 Cl_a:2px   -0.0127  -0.0056  -0.0152  -0.0118   0.0934  -0.0272   0.0000
  12 Cl_a:2py    0.0040  -0.0131  -0.0625  -0.0752   0.0972  -0.2226  -0.0000
  13 Cl_a:2pz   -0.0000  -0.0000  -0.0000  -0.0000   0.0000   0.0000   0.0906
  20 Cl_a:2px    0.0030   0.0010   0.0002   0.0024  -0.0113   0.0003   0.0000
  21 Cl_a:2py   -0.0009   0.0005   0.0093   0.0102  -0.0266   0.0309   0.0000
  22 Cl_a:2pz    0.0000   0.0000  -0.0000  -0.0000  -0.0000   0.0000  -0.0129
  35 Cl_a:3d2+  -0.0002   0.0014   0.0063   0.0044  -0.0019   0.0108  -0.0000
  40 Cl_a:3d2+   0.0001   0.0018   0.0064   0.0056  -0.0018   0.0133  -0.0000
  86 N_a :1s     0.0000  -0.5483  -0.3525  -0.6170  -0.1208  -0.3211  -0.0000
  88 N_a :1s     0.0002   0.1074  -0.0113   0.0109  -0.0173  -0.0564   0.0000
  89 N_a :1s    -0.0006   0.1437  -0.0037   0.0227  -0.0201  -0.1185  -0.0000
  90 N_a :1s     0.0000   0.0078  -0.0149   0.0113   0.0446  -0.0255  -0.0000
  91 N_a :2px    0.0000  -0.2983   0.1520   0.0376   0.2860   0.6408   0.0000
  92 N_a :2py   -0.0000  -0.0319   0.1398  -0.0853  -0.4517   0.1548  -0.0000
  93 N_a :2pz   -0.0000   0.0000   0.0000  -0.0000  -0.0000  -0.0000   0.5612
  97 N_a :2px    0.0001   0.0541  -0.0193  -0.0015  -0.0197  -0.0533  -0.0000
  98 N_a :2py    0.0000   0.0108   0.0029   0.0067   0.0235  -0.0029   0.0000
  99 N_a :2pz    0.0000  -0.0000   0.0000   0.0000   0.0000   0.0000  -0.0202
 100 N_a :2px   -0.0009   0.0577  -0.0298  -0.0171  -0.0391  -0.0644   0.0000
 101 N_a :2py   -0.0003   0.0039  -0.0097   0.0068   0.0667  -0.0100  -0.0000
 102 N_a :2pz   -0.0000   0.0000   0.0000   0.0000  -0.0000  -0.0000  -0.0742
 111 N_a :3d2-   0.0000  -0.0037   0.0011  -0.0021  -0.0211   0.0075   0.0000
 113 N_a :3d0   -0.0000   0.0105   0.0012   0.0010  -0.0053  -0.0102   0.0000
 114 N_a :3d1+  -0.0000  -0.0000   0.0000   0.0000   0.0000   0.0000   0.0267
 115 N_a :3d2+   0.0000  -0.0189   0.0069  -0.0047   0.0085   0.0194   0.0000
 118 N_a :3d0    0.0001   0.0133   0.0056   0.0032  -0.0082  -0.0090  -0.0000
 119 N_a :3d1+   0.0000   0.0000   0.0000   0.0000  -0.0000   0.0000   0.0247
 120 N_a :3d2+   0.0000  -0.0215   0.0138  -0.0069   0.0020   0.0259   0.0000
 121 N_a :3d2-   0.0002  -0.0012  -0.0038   0.0013   0.0193  -0.0065  -0.0000
 125 N_a :3d2+  -0.0000  -0.0056   0.0037  -0.0077  -0.0040   0.0151   0.0000
 166 O_a :1s     0.0000  -0.7409   0.3034   0.5232  -0.0491  -0.1402   0.0000
 168 O_a :1s    -0.0000   0.0650   0.0046   0.0349  -0.0135  -0.0469  -0.0000
 169 O_a :1s     0.0006   0.0476   0.0334   0.0930  -0.0222  -0.0680   0.0000
 170 O_a :1s     0.0001  -0.0193   0.0108  -0.0010  -0.0133   0.0106   0.0000
 171 O_a :2px   -0.0000   0.2489   0.0879   0.4533  -0.0615  -0.5893  -0.0000
 172 O_a :2py    0.0000   0.0347   0.0722   0.0084  -0.7400   0.1080  -0.0000
 173 O_a :2pz   -0.0000   0.0000  -0.0000  -0.0000  -0.0000  -0.0000   0.6909
 177 O_a :2px    0.0000  -0.0120  -0.0088  -0.0271   0.0067   0.0274   0.0000
 180 O_a :2px   -0.0001  -0.0043  -0.0197  -0.0443   0.0029   0.0138  -0.0000
 181 O_a :2py    0.0002  -0.0008  -0.0121  -0.0005   0.0040  -0.0030  -0.0000
 191 O_a :3d2-   0.0000  -0.0041  -0.0026  -0.0010   0.0178   0.0005  -0.0000
 194 O_a :3d1+   0.0000  -0.0000  -0.0000  -0.0000  -0.0000  -0.0000  -0.0208
 195 O_a :3d2+  -0.0000  -0.0131  -0.0004  -0.0100  -0.0011   0.0128  -0.0000
 196 O_a :3d2-  -0.0000  -0.0076  -0.0006  -0.0009   0.0283   0.0035   0.0000
 198 O_a :3d0    0.0000   0.0163  -0.0006   0.0054  -0.0037  -0.0108  -0.0000
 199 O_a :3d1+   0.0000   0.0000   0.0000   0.0000  -0.0000   0.0000  -0.0346
 200 O_a :3d2+  -0.0001  -0.0268   0.0014  -0.0138  -0.0013   0.0196   0.0000
 201 O_a :3d2-  -0.0001  -0.0035   0.0006  -0.0019   0.0182   0.0023  -0.0000
 203 O_a :3d0    0.0001   0.0072  -0.0013   0.0039  -0.0017  -0.0101  -0.0000
 204 O_a :3d1+  -0.0000   0.0000   0.0000   0.0000  -0.0000  -0.0000  -0.0209
 205 O_a :3d2+   0.0001  -0.0118  -0.0008  -0.0068   0.0005   0.0124   0.0000

    Orbital        14       15       16       17       18       19       20
   3 Cl_a:1s     0.0000   0.0118  -0.0257   0.0000  -0.1432   0.1282  -0.0319
   4 Cl_a:1s    -0.0000   0.0006  -0.0032  -0.0000  -0.0025  -0.0009   0.0257
   5 Cl_a:1s     0.0000   0.0033  -0.0035  -0.0000   0.0527   0.0861  -0.3035
   6 Cl_a:1s    -0.0000   0.0018  -0.0285   0.0000  -0.3890  -0.2872   1.1857
   7 Cl_a:1s    -0.0000   0.0038  -0.0085   0.0000  -2.9861  -1.7144   6.0505
   9 Cl_a:2py    0.0000   0.0026  -0.0084   0.0000  -0.0219  -0.0137   0.0534
  11 Cl_a:2px   -0.0000  -0.9673   0.0263   0.0000  -0.1107   0.0885   0.0245
  12 Cl_a:2py    0.0000   0.1506   0.7085   0.0000  -0.4449   0.1020  -0.1022
  13 Cl_a:2pz    0.9654  -0.0000  -0.0000   0.1859   0.0000  -0.0000   0.0000
  14 Cl_a:2px   -0.0000   0.0088   0.0034   0.0000   0.0104  -0.0005  -0.0181
  15 Cl_a:2py    0.0000  -0.0027   0.0052  -0.0000   0.0516   0.0364  -0.1385
  17 Cl_a:2px    0.0000   0.0021   0.0041   0.0000  -0.0095   0.0123   0.0304
  18 Cl_a:2py   -0.0000  -0.0029   0.0114  -0.0000  -0.0465  -0.0096   0.0971
  20 Cl_a:2px   -0.0000  -0.0199  -0.0058   0.0000  -0.2985  -0.3684   0.5996
  21 Cl_a:2py   -0.0000   0.0017   0.0172   0.0000  -0.8513  -0.6587   1.5879
  22 Cl_a:2pz    0.0204  -0.0000   0.0000   0.0527  -0.0000   0.0000  -0.0000
  23 Cl_a:2px   -0.0000  -0.0100   0.0010   0.0000  -0.3142   0.0863   0.1427
  24 Cl_a:2py    0.0000   0.0022   0.0099   0.0000  -1.1897  -0.0479   1.9214
  25 Cl_a:2pz    0.0092  -0.0000  -0.0000   0.1679   0.0000  -0.0000   0.0000
  27 Cl_a:3d1-   0.0027   0.0000   0.0000  -0.0124   0.0000   0.0000  -0.0000
  30 Cl_a:3d2+   0.0000   0.0007  -0.0060  -0.0000  -0.0155   0.0076  -0.0100
  31 Cl_a:3d2-   0.0000  -0.0036   0.0079  -0.0000   0.0202   0.0021  -0.0091
  32 Cl_a:3d1-   0.0043   0.0000   0.0000  -0.0201   0.0000   0.0000  -0.0000
  33 Cl_a:3d0    0.0000   0.0012  -0.0051  -0.0000  -0.0214  -0.0065   0.0042
  35 Cl_a:3d2+   0.0000   0.0007  -0.0086  -0.0000  -0.0298  -0.0032  -0.0046
  36 Cl_a:3d2-   0.0000  -0.0080   0.0136  -0.0000  -0.0269  -0.0720   0.1852
  37 Cl_a:3d1-   0.0110   0.0000   0.0000  -0.0323   0.0000   0.0000  -0.0000
  38 Cl_a:3d0    0.0000   0.0030  -0.0094  -0.0000   0.0312   0.0763  -0.1597
  40 Cl_a:3d2+   0.0000   0.0001  -0.0152  -0.0000   0.0280   0.0944  -0.1905
  41 Cl_a:3d2-   0.0000  -0.0038   0.0024  -0.0000  -0.1361  -0.2013   0.1978
  42 Cl_a:3d1-   0.0034   0.0000   0.0000  -0.0140   0.0000   0.0000  -0.0000
  43 Cl_a:3d0    0.0000   0.0020  -0.0042  -0.0000   0.1178   0.1074  -0.2614
  45 Cl_a:3d2+   0.0000   0.0001  -0.0065  -0.0000   0.1786   0.0908  -0.5029
  55 Cl_a:4f1-   0.0000   0.0004  -0.0021  -0.0000  -0.0030   0.0050  -0.0142
  59 Cl_a:4f3+   0.0000   0.0033  -0.0036  -0.0000  -0.0045   0.0042  -0.0159
  60 Cl_a:4f3-   0.0000  -0.0011  -0.0017  -0.0000   0.0244   0.0039  -0.0659
  62 Cl_a:4f1-  -0.0000   0.0011  -0.0034  -0.0000   0.0336   0.0325  -0.0648
  64 Cl_a:4f1+  -0.0000   0.0002  -0.0015   0.0000   0.0084   0.0128  -0.0147
  66 Cl_a:4f3+  -0.0000   0.0014  -0.0032   0.0000   0.0370   0.0375  -0.0792
  76 Cl_a:5g4-  -0.0000   0.0000  -0.0008  -0.0000   0.0036   0.0060  -0.0172
  86 N_a :1s     0.0000  -0.0050  -0.2351   0.0000   0.2126  -0.0230   0.0628
  87 N_a :1s    -0.0000   0.0015  -0.0086  -0.0000   0.0199   0.0737   0.0107
  88 N_a :1s     0.0000  -0.0073  -0.0172   0.0000  -0.1820  -0.6315   0.0592
  89 N_a :1s     0.0000  -0.0261  -0.0836   0.0000   0.0963  -3.3091  -3.0058
  90 N_a :1s     0.0000  -0.0213  -0.0361  -0.0000   2.4172  -4.9934 -10.6704
  91 N_a :2px    0.0000   0.0296   0.2318   0.0000  -0.0669  -0.0433  -0.0092
  92 N_a :2py    0.0000   0.0135  -0.3518   0.0000  -0.5247   0.2778  -0.3663
  93 N_a :2pz   -0.0030  -0.0000   0.0000  -0.7030  -0.0000   0.0000  -0.0000
  97 N_a :2px    0.0000  -0.0109  -0.0063   0.0000  -0.0804  -0.5413  -0.2119
  98 N_a :2py    0.0000   0.0010  -0.0162   0.0000  -0.0301  -0.0677  -0.0794
  99 N_a :2pz    0.0060  -0.0000   0.0000  -0.0376  -0.0000   0.0000  -0.0000
 100 N_a :2px    0.0000  -0.0165  -0.0105   0.0000  -0.2604  -1.9873  -0.8354
 101 N_a :2py    0.0000   0.0056  -0.0772   0.0000  -0.8737  -0.7702   1.0126
 102 N_a :2pz    0.0157  -0.0000   0.0000  -0.3201  -0.0000   0.0000  -0.0000
 103 N_a :2px    0.0000  -0.0015   0.0012   0.0000  -0.1999  -1.6681  -0.4081
 104 N_a :2py    0.0000   0.0062  -0.0221   0.0000  -1.7178  -1.1063   3.0680
 105 N_a :2pz    0.0031  -0.0000   0.0000  -0.6169  -0.0000   0.0000  -0.0000
 111 N_a :3d2-   0.0000  -0.0011   0.0135   0.0000  -0.0033  -0.0095  -0.0049
 113 N_a :3d0   -0.0000  -0.0003  -0.0089  -0.0000   0.0092   0.0232   0.0009
 115 N_a :3d2+   0.0000   0.0069  -0.0061   0.0000  -0.0058  -0.0350  -0.0255
 116 N_a :3d2-   0.0000   0.0007   0.0223   0.0000   0.0002  -0.0449  -0.1347
 117 N_a :3d1-  -0.0144  -0.0000   0.0000   0.0033   0.0000   0.0000   0.0000
 118 N_a :3d0   -0.0000   0.0017  -0.0156  -0.0000  -0.0128   0.0950   0.1501
 120 N_a :3d2+   0.0000   0.0124  -0.0202   0.0000  -0.0528  -0.2462   0.0365
 121 N_a :3d2-   0.0000   0.0002   0.0009   0.0000  -0.0283  -0.1609  -0.3217
 123 N_a :3d0   -0.0000   0.0028  -0.0077  -0.0000  -0.1210   0.0307   0.4743
 124 N_a :3d1+  -0.0009  -0.0000   0.0000  -0.0477  -0.0000   0.0000  -0.0000
 125 N_a :3d2+   0.0000   0.0052  -0.0189   0.0000  -0.1205  -0.4427   0.3174
 133 N_a :4f3-   0.0000  -0.0044   0.0069   0.0000   0.0003  -0.0072  -0.0162
 137 N_a :4f1+   0.0000  -0.0000   0.0005  -0.0000   0.0032   0.0210   0.0086
 139 N_a :4f3+   0.0000   0.0026   0.0035   0.0000  -0.0008  -0.0220  -0.0084
 140 N_a :4f3-   0.0000  -0.0057   0.0059   0.0000   0.0063  -0.0106  -0.0906
 142 N_a :4f1-  -0.0000  -0.0003   0.0020  -0.0000   0.0210   0.0302  -0.0477
 144 N_a :4f1+  -0.0000   0.0004   0.0011  -0.0000   0.0002   0.0205   0.0178
 146 N_a :4f3+   0.0000   0.0028   0.0027   0.0000   0.0228  -0.0188  -0.0293
 166 O_a :1s    -0.0000   0.0327   0.0242  -0.0000   0.0220   0.0980   0.0244
 167 O_a :1s     0.0000   0.0002   0.0009   0.0000  -0.0027  -0.0223  -0.0064
 168 O_a :1s    -0.0000   0.0014  -0.0039  -0.0000  -0.0050   0.0481  -0.0013
 169 O_a :1s    -0.0000   0.0170   0.0119  -0.0000   0.3147   2.6924   1.4002
 170 O_a :1s    -0.0000   0.0168   0.0148   0.0000   0.5022   7.3104   5.2887
 171 O_a :2px    0.0000  -0.0243  -0.1307   0.0000   0.0322   0.0365   0.0258
 172 O_a :2py    0.0000  -0.1735   0.4958   0.0000   0.2825  -0.0955   0.1157
 173 O_a :2pz   -0.1695   0.0000  -0.0000   0.5750   0.0000  -0.0000   0.0000
 174 O_a :2px   -0.0000  -0.0002   0.0003  -0.0000   0.0056   0.0263   0.0109
 177 O_a :2px    0.0000  -0.0026   0.0028   0.0000  -0.0480  -0.3179  -0.1295
 178 O_a :2py    0.0000   0.0012   0.0087   0.0000   0.0120  -0.0437   0.0255
 179 O_a :2pz   -0.0029   0.0000  -0.0000   0.0305   0.0000  -0.0000   0.0000
 180 O_a :2px    0.0000  -0.0043  -0.0096   0.0000  -0.2848  -1.8233  -0.9962
 181 O_a :2py   -0.0000  -0.0068   0.0637   0.0000   0.1899  -0.1816   0.0188
 182 O_a :2pz   -0.0149   0.0000  -0.0000   0.2562   0.0000  -0.0000   0.0000
 183 O_a :2px    0.0000  -0.0022  -0.0064   0.0000  -0.2055  -1.8807  -1.3516
 184 O_a :2py   -0.0000  -0.0087   0.0301   0.0000   0.4720  -0.2265  -0.5635
 185 O_a :2pz   -0.0072   0.0000  -0.0000   0.5212   0.0000  -0.0000   0.0000
 195 O_a :3d2+   0.0000   0.0018   0.0003  -0.0000  -0.0007   0.0105   0.0019
 196 O_a :3d2-  -0.0000   0.0010  -0.0037  -0.0000   0.0123   0.0383  -0.0067
 198 O_a :3d0    0.0000  -0.0005  -0.0013   0.0000  -0.0178  -0.1045  -0.0515
 200 O_a :3d2+  -0.0000   0.0049  -0.0018  -0.0000   0.0393   0.1924   0.0728
 201 O_a :3d2-   0.0000  -0.0005  -0.0091   0.0000  -0.0422   0.0826   0.0429
 203 O_a :3d0   -0.0000  -0.0008   0.0015  -0.0000  -0.0501  -0.2210  -0.1429
 204 O_a :3d1+   0.0039  -0.0000   0.0000  -0.0439  -0.0000   0.0000  -0.0000
 205 O_a :3d2+   0.0000   0.0001   0.0035   0.0000   0.0827   0.3355   0.1193
 217 O_a :4f1+   0.0000   0.0002   0.0006  -0.0000   0.0026   0.0165   0.0072
 219 O_a :4f3+  -0.0000  -0.0010   0.0002   0.0000  -0.0039  -0.0222  -0.0078
 220 O_a :4f3-  -0.0000  -0.0006   0.0019   0.0000   0.0005  -0.0235   0.0077
 222 O_a :4f1-   0.0000  -0.0000  -0.0002   0.0000   0.0003   0.0103   0.0042
 224 O_a :4f1+  -0.0000   0.0002  -0.0001   0.0000   0.0101   0.0405   0.0228
 226 O_a :4f3+   0.0000  -0.0009  -0.0003  -0.0000  -0.0159  -0.0434  -0.0042

    Orbital        21       22       23       24       25       26
   2 Cl_a:1s    -0.0247   0.0000   0.0020   0.0000   0.0178  -0.0000
   3 Cl_a:1s    -0.1504   0.0000  -0.0213   0.0000   0.1441  -0.0000
   4 Cl_a:1s    -0.0328  -0.0000   0.0123  -0.0000   0.0289   0.0000
   5 Cl_a:1s     0.1761  -0.0000  -0.1377  -0.0000  -0.2268   0.0000
   6 Cl_a:1s    -0.4483   0.0000   0.5142   0.0000   1.3358  -0.0000
   7 Cl_a:1s    -1.5468   0.0000   2.0026   0.0000  -0.5208  -0.0000
   8 Cl_a:2px   -0.0278   0.0000   0.0492  -0.0000   0.0247   0.0000
   9 Cl_a:2py   -0.0108  -0.0000   0.0042   0.0000   0.0247   0.0000
  10 Cl_a:2pz   -0.0000   0.0614   0.0000   0.0296  -0.0000  -0.0052
  11 Cl_a:2px    0.0103  -0.0000   0.0349  -0.0000   0.1060   0.0000
  12 Cl_a:2py    0.0944   0.0000   0.0206   0.0000   0.2758  -0.0000
  13 Cl_a:2pz    0.0000   0.0606   0.0000  -0.0033  -0.0000  -0.0481
  14 Cl_a:2px    0.0657   0.0000  -0.1153   0.0000  -0.0609  -0.0000
  15 Cl_a:2py    0.0307  -0.0000  -0.0144  -0.0000  -0.0643   0.0000
  16 Cl_a:2pz    0.0000  -0.1416  -0.0000  -0.0701   0.0000   0.0102
  17 Cl_a:2px   -0.0278   0.0000   0.0371   0.0000   0.0710  -0.0000
  18 Cl_a:2py   -0.0332  -0.0000   0.0379  -0.0000   0.1350   0.0000
  19 Cl_a:2pz    0.0000   0.0482  -0.0000   0.0095   0.0000  -0.0037
  20 Cl_a:2px    0.4428   0.0000  -0.1269  -0.0000  -0.1986  -0.0000
  21 Cl_a:2py   -0.4557   0.0000   0.8323   0.0000   0.4155  -0.0000
  22 Cl_a:2pz    0.0000  -0.7841  -0.0000  -0.0442   0.0000   0.0867
  23 Cl_a:2px   -0.8246   0.0000   2.1071   0.0000  -0.7985  -0.0000
  24 Cl_a:2py   -1.5913   0.0000  -0.3032   0.0000  -1.1225  -0.0000
  25 Cl_a:2pz    0.0000   0.7793  -0.0000   1.8956  -0.0000   0.5530
  31 Cl_a:3d2-  -0.0202  -0.0000   0.0067  -0.0000   0.0013   0.0000
  32 Cl_a:3d1-  -0.0000   0.0050   0.0000   0.0117  -0.0000   0.0063
  33 Cl_a:3d0    0.0178  -0.0000   0.0070  -0.0000   0.0024  -0.0000
  34 Cl_a:3d1+  -0.0000   0.0028   0.0000   0.0003  -0.0000   0.0138
  35 Cl_a:3d2+   0.0096  -0.0000   0.0113  -0.0000   0.0093   0.0000
  36 Cl_a:3d2-   0.0436  -0.0000  -0.0192  -0.0000   0.0753   0.0000
  37 Cl_a:3d1-  -0.0000  -0.0461   0.0000  -0.0483  -0.0000   0.0121
  38 Cl_a:3d0   -0.0192  -0.0000  -0.0817  -0.0000  -0.0492  -0.0000
  39 Cl_a:3d1+  -0.0000  -0.0186   0.0000  -0.0015  -0.0000   0.0123
  40 Cl_a:3d2+   0.0515  -0.0000  -0.1407  -0.0000  -0.0853   0.0000
  41 Cl_a:3d2-  -0.0241  -0.0000   0.3314  -0.0000  -0.3000   0.0000
  42 Cl_a:3d1-  -0.0000  -0.1888   0.0000   0.4359  -0.0000   0.0933
  43 Cl_a:3d0    0.2577  -0.0000  -0.0771  -0.0000   0.2003  -0.0000
  44 Cl_a:3d1+  -0.0000  -0.0492   0.0000   0.1145  -0.0000   0.1333
  45 Cl_a:3d2+   0.3544  -0.0000   0.0153  -0.0000   0.1328   0.0000
  53 Cl_a:4f3-  -0.0022   0.0000  -0.0258   0.0000  -0.0112   0.0000
  54 Cl_a:4f2-   0.0000  -0.0002   0.0000  -0.0113  -0.0000  -0.0162
  55 Cl_a:4f1-  -0.0073  -0.0000  -0.0090   0.0000  -0.0400   0.0000
  56 Cl_a:4f0    0.0000  -0.0013  -0.0000   0.0161   0.0000  -0.0088
  57 Cl_a:4f1+  -0.0058  -0.0000   0.0014  -0.0000  -0.0101   0.0000
  58 Cl_a:4f2+   0.0000  -0.0016  -0.0000   0.0192   0.0000   0.0058
  59 Cl_a:4f3+   0.0054  -0.0000   0.0124  -0.0000  -0.0411   0.0000
  60 Cl_a:4f3-   0.0582  -0.0000   0.0043  -0.0000   0.0003   0.0000
  61 Cl_a:4f2-  -0.0000  -0.0282   0.0000   0.0438  -0.0000   0.0416
  62 Cl_a:4f1-   0.0350  -0.0000  -0.0246  -0.0000   0.0630   0.0000
  63 Cl_a:4f0    0.0000   0.0381  -0.0000  -0.0497   0.0000   0.0061
  64 Cl_a:4f1+   0.0089   0.0000  -0.0060   0.0000   0.0166  -0.0000
  65 Cl_a:4f2+   0.0000   0.0392  -0.0000  -0.0515   0.0000  -0.0208
  66 Cl_a:4f3+  -0.0083   0.0000  -0.0308   0.0000   0.0572  -0.0000
  79 Cl_a:5g1-   0.0000   0.0128  -0.0000  -0.0039   0.0000   0.0003
  83 Cl_a:5g3+   0.0000   0.0106  -0.0000  -0.0078   0.0000  -0.0020
  84 Cl_a:5g4+  -0.0100   0.0000   0.0083   0.0000   0.0034  -0.0000
  86 N_a :1s    -0.1188   0.0000  -0.0117   0.0000  -0.0567  -0.0000
  87 N_a :1s     0.0019  -0.0000   0.0113  -0.0000  -0.0161   0.0000
  88 N_a :1s    -0.1414   0.0000  -0.0799   0.0000  -0.2040  -0.0000
  89 N_a :1s    -0.4933   0.0000  -1.7535   0.0000   0.0380  -0.0000
  90 N_a :1s     2.5001  -0.0000  -4.9263  -0.0000   0.9841   0.0000
  91 N_a :2px    0.0498   0.0000   0.0064   0.0000  -0.0054  -0.0000
  92 N_a :2py    0.0457  -0.0000  -0.1065  -0.0000   0.2021  -0.0000
  93 N_a :2pz    0.0000  -0.1159  -0.0000   0.1526   0.0000   0.1834
  94 N_a :2px   -0.0021  -0.0000   0.0003  -0.0000  -0.0328  -0.0000
  95 N_a :2py   -0.0107  -0.0000  -0.0078  -0.0000   0.0003   0.0000
  96 N_a :2pz    0.0000  -0.0011  -0.0000  -0.0031   0.0000   0.0260
  97 N_a :2px   -0.0896   0.0000  -0.1728   0.0000   0.0658  -0.0000
  98 N_a :2py    0.1030   0.0000   0.0147   0.0000  -0.1301  -0.0000
  99 N_a :2pz    0.0000  -0.0574  -0.0000   0.0885   0.0000  -0.2703
 100 N_a :2px   -0.3505   0.0000  -0.5050   0.0000   1.1797  -0.0000
 101 N_a :2py    0.1347   0.0000   0.9189   0.0000  -0.4121  -0.0000
 102 N_a :2pz    0.0000  -0.2916  -0.0000   0.5306   0.0000  -1.8429
 103 N_a :2px   -0.9807   0.0000  -2.2504   0.0000   2.3902  -0.0000
 104 N_a :2py    0.6219   0.0000   1.4256   0.0000   0.7483  -0.0000
 105 N_a :2pz    0.0000   0.6196  -0.0000  -1.9439   0.0000  -3.2944
 114 N_a :3d1+   0.0000  -0.0049  -0.0000   0.0065   0.0000  -0.0169
 115 N_a :3d2+  -0.0078   0.0000  -0.0133   0.0000  -0.0098  -0.0000
 116 N_a :3d2-   0.1367   0.0000   0.0307   0.0000  -0.1758  -0.0000
 117 N_a :3d1-  -0.0000  -0.0453   0.0000   0.0200  -0.0000  -0.0453
 118 N_a :3d0   -0.0268  -0.0000   0.0430  -0.0000  -0.0558   0.0000
 119 N_a :3d1+   0.0000  -0.1159  -0.0000   0.1615   0.0000  -0.3652
 120 N_a :3d2+  -0.0186   0.0000  -0.0357   0.0000   0.2622  -0.0000
 121 N_a :3d2-   0.6544   0.0000   0.3321  -0.0000  -0.5990  -0.0000
 122 N_a :3d1-   0.0000  -0.2200  -0.0000   0.3967   0.0000  -0.0423
 123 N_a :3d0   -0.0369  -0.0000   0.1943  -0.0000  -0.0951   0.0000
 124 N_a :3d1+   0.0000  -0.1498  -0.0000   0.2392   0.0000  -1.1528
 125 N_a :3d2+  -0.0036   0.0000   0.1075   0.0000   0.9281  -0.0000
 133 N_a :4f3-   0.0176   0.0000   0.0043   0.0000  -0.0170  -0.0000
 136 N_a :4f0   -0.0000   0.0158   0.0000  -0.0204  -0.0000   0.0207
 137 N_a :4f1+  -0.0019  -0.0000   0.0048  -0.0000  -0.0140   0.0000
 138 N_a :4f2+   0.0000  -0.0110  -0.0000   0.0156   0.0000  -0.0334
 139 N_a :4f3+  -0.0070   0.0000  -0.0099   0.0000   0.0249  -0.0000
 140 N_a :4f3-   0.0525   0.0000   0.0636   0.0000  -0.1098  -0.0000
 141 N_a :4f2-   0.0000   0.0010  -0.0000   0.0310   0.0000  -0.0232
 142 N_a :4f1-  -0.0065  -0.0000  -0.0529  -0.0000  -0.0270   0.0000
 143 N_a :4f0   -0.0000  -0.0165   0.0000  -0.0086  -0.0000   0.1269
 144 N_a :4f1+   0.0140  -0.0000  -0.0191  -0.0000  -0.0658   0.0000
 145 N_a :4f2+   0.0000  -0.0626  -0.0000   0.0711   0.0000  -0.1268
 146 N_a :4f3+   0.0829   0.0000  -0.0479   0.0000   0.0877  -0.0000
 156 N_a :5g4-   0.0034   0.0000   0.0129   0.0000  -0.0053  -0.0000
 161 N_a :5g1+  -0.0000   0.0059   0.0000  -0.0081  -0.0000   0.0147
 162 N_a :5g2+  -0.0005  -0.0000  -0.0016  -0.0000  -0.0122   0.0000
 163 N_a :5g3+   0.0000  -0.0055  -0.0000   0.0097   0.0000  -0.0126
 166 O_a :1s     0.0165  -0.0000   0.0259  -0.0000   0.0138   0.0000
 167 O_a :1s     0.0025   0.0000  -0.0070   0.0000   0.0200  -0.0000
 168 O_a :1s    -0.0946  -0.0000  -0.0141  -0.0000  -0.2324   0.0000
 169 O_a :1s     0.2294  -0.0000   0.7129  -0.0000  -1.0354   0.0000
 170 O_a :1s     0.8172   0.0000   3.8778   0.0000  -0.8497  -0.0000
 171 O_a :2px   -0.0191   0.0000  -0.0033   0.0000   0.0369  -0.0000
 172 O_a :2py   -0.0080  -0.0000   0.0481  -0.0000  -0.1673   0.0000
 173 O_a :2pz   -0.0000  -0.0368   0.0000   0.0008  -0.0000  -0.2261
 175 O_a :2py    0.0035  -0.0000   0.0027  -0.0000  -0.0125   0.0000
 176 O_a :2pz    0.0000  -0.0099  -0.0000   0.0121   0.0000  -0.0201
 177 O_a :2px   -0.0103   0.0000  -0.0713   0.0000   0.1229  -0.0000
 178 O_a :2py   -0.0244   0.0000  -0.0356   0.0000   0.1049  -0.0000
 179 O_a :2pz   -0.0000   0.0567   0.0000  -0.0784  -0.0000   0.1160
 180 O_a :2px   -0.3604   0.0000  -0.6492   0.0000  -0.4436  -0.0000
 181 O_a :2py   -0.6181   0.0000  -0.6092   0.0000   0.6780   0.0000
 182 O_a :2pz   -0.0000   0.2521   0.0000  -0.4567  -0.0000   1.5064
 183 O_a :2px    0.2278  -0.0000  -0.5589   0.0000  -1.5596   0.0000
 184 O_a :2py   -1.1287  -0.0000  -0.3421  -0.0000   0.2919   0.0000
 185 O_a :2pz   -0.0000   0.1922   0.0000  -0.1108  -0.0000   3.5280
 195 O_a :3d2+  -0.0007  -0.0000   0.0006  -0.0000  -0.0147   0.0000
 196 O_a :3d2-   0.0775  -0.0000   0.0701  -0.0000  -0.1054  -0.0000
 197 O_a :3d1-   0.0000  -0.0125  -0.0000   0.0082   0.0000  -0.0349
 198 O_a :3d0   -0.0443   0.0000  -0.0417   0.0000  -0.0062  -0.0000
 199 O_a :3d1+   0.0000  -0.0536  -0.0000   0.0852   0.0000  -0.1890
 200 O_a :3d2+   0.0055  -0.0000   0.0403  -0.0000   0.0658   0.0000
 201 O_a :3d2-   0.2430   0.0000   0.2162   0.0000  -0.2685  -0.0000
 202 O_a :3d1-   0.0000   0.0252  -0.0000  -0.0501   0.0000  -0.1553
 203 O_a :3d0   -0.0804  -0.0000  -0.0705  -0.0000  -0.3044   0.0000
 204 O_a :3d1+   0.0000  -0.1548  -0.0000   0.2338   0.0000  -0.9376
 205 O_a :3d2+   0.0017   0.0000   0.1121   0.0000   0.3450  -0.0000
 213 O_a :4f3-  -0.0120  -0.0000  -0.0074  -0.0000   0.0097   0.0000
 216 O_a :4f0    0.0000  -0.0021  -0.0000   0.0037   0.0000  -0.0111
 218 O_a :4f2+  -0.0000   0.0037   0.0000  -0.0067  -0.0000   0.0122
 220 O_a :4f3-  -0.0383   0.0000  -0.0225   0.0000   0.0446   0.0000
 221 O_a :4f2-  -0.0000   0.0051   0.0000   0.0060  -0.0000   0.0426
 223 O_a :4f0    0.0000  -0.0202  -0.0000   0.0309   0.0000  -0.0971
 224 O_a :4f1+   0.0193   0.0000   0.0109   0.0000   0.0565  -0.0000
 225 O_a :4f2+  -0.0000   0.0312   0.0000  -0.0419  -0.0000   0.1187
 226 O_a :4f3+   0.0199  -0.0000  -0.0102  -0.0000  -0.0593   0.0000
 241 O_a :5g1+   0.0000   0.0016  -0.0000  -0.0029   0.0000   0.0160
 243 O_a :5g3+  -0.0000  -0.0035   0.0000   0.0046  -0.0000  -0.0119

  Total CPU  time used in SIRIUS :  2 minutes 54 seconds
  Total wall time used in SIRIUS :  2 minutes 56 seconds

 
     Date and time (Linux)  : Wed Sep 13 19:03:03 2023
     Host name              : sn-mem                                  


                     .---------------------------------------.
                     | End of Wave Function Section (SIRIUS) |
                     `---------------------------------------'



                 .------------------------------------------------.
                 | Starting in Dynamic Property Section (RESPONS) |
                 `------------------------------------------------'


 ----------------------------------------------------------------------------------------
  RESPONSE  -  an MCSCF, MC-srDFT, DFT, SOPPA and SOPPA-srDFT response property program
 ----------------------------------------------------------------------------------------


 -------- OUTPUT FROM RESPONSE INPUT PROCESSING --------




 Quadratic Response calculation
 ------------------------------

 First hyperpolarizability calculation : HYPCAL= T

 Spin of operator A , ISPINA=    0
 Spin of operator B , ISPINB=    0
 Spin of operator C , ISPINC=    0

  5 B-frequencies  0.000000D+00  6.344563D-03  1.268913D-02  1.903369D-02  2.537825D-02
  5 C-frequencies  0.000000D+00  6.344563D-03  1.268913D-02  1.903369D-02  2.537825D-02


 Print level                                    : IPRHYP =   2
 Maximum number of iterations in lin.rsp. solver: MAXITL =  60
 Threshold for convergence of linear resp. eq.s : THCLR  = 1.000D-03
 Maximum iterations in optimal orbital algorithm: MAXITO =   5
 Direct one-index transformation                : DIROIT = T

    3 A OPERATORS OF SYMMETRY NO:    1 AND LABELS:

          XDIPLEN 
          YDIPLEN 
          ZDIPLEN 

    3 B OPERATORS OF SYMMETRY NO:    1 AND LABELS:

          XDIPLEN 
          YDIPLEN 
          ZDIPLEN 

    3 C OPERATORS OF SYMMETRY NO:    1 AND LABELS:

          XDIPLEN 
          YDIPLEN 
          ZDIPLEN 


   SCF energy         :     -588.781100874635399
 -- inactive part     :     -673.929520659088439
 -- nuclear repulsion :       85.148419784453068


                     ***************************************
                     *** RHF response calculation (TDHF) ***
                     ***************************************



 Linear response calculations for quadratic response
 - singlet property operator of symmetry    1  ( A  )


 Perturbation symmetry.     KSYMOP:           1
 Perturbation spin symmetry.TRPLET:           F
 Orbital variables.         KZWOPT:        3648
 Configuration variables.   KZCONF:           0
 Total number of variables. KZVAR :        3648


 QRLRVE -- linear response calculation for symmetry  1  ( A  )
 QRLRVE -- operator label : XDIPLEN 
 QRLRVE -- operator spin  :   0
 QRLRVE -- frequencies :  0.000000  0.006345  0.012689  0.019034  0.025378
                          0.031723  0.038067  0.044412  0.050757



 ---  SOLVING SETS OF LINEAR EQUATIONS FOR LINEAR RESPONSE PROPERTIES ---

 Operator symmetry = 1  ( A  ); triplet =   F

RSPORT:    2 out of    9 new trial vectors linear dependent

 ** RSPCTL MICROITERATION NUMBER    1

       No.  Residual tot.,    conf., and orb.    Bnorm      Frequency 
      ----------------------------------------------------------------
         1    4.13875D+00  0.00D+00  4.14D+00  4.13D+00    0.00000D+00
         2    4.13947D+00  0.00D+00  4.14D+00  4.13D+00    6.34456D-03
         3    4.14163D+00  0.00D+00  4.14D+00  4.14D+00    1.26891D-02
         4    4.14526D+00  0.00D+00  4.15D+00  4.15D+00    1.90337D-02
         5    4.15035D+00  0.00D+00  4.15D+00  4.16D+00    2.53783D-02
         6    4.15693D+00  0.00D+00  4.16D+00  4.18D+00    3.17228D-02
         7    4.16502D+00  0.00D+00  4.17D+00  4.19D+00    3.80674D-02
         8    4.17467D+00  0.00D+00  4.17D+00  4.22D+00    4.44119D-02
         9    4.18592D+00  0.00D+00  4.19D+00  4.24D+00    5.07565D-02

 ** RSPCTL MICROITERATION NUMBER    2

       No.  Residual tot.,    conf., and orb.    Bnorm      Frequency 
      ----------------------------------------------------------------
         1    1.18269D+00  0.00D+00  1.18D+00  5.09D+00    0.00000D+00
         2    1.18313D+00  0.00D+00  1.18D+00  5.09D+00    6.34456D-03
         3    1.18445D+00  0.00D+00  1.18D+00  5.10D+00    1.26891D-02
         4    1.18667D+00  0.00D+00  1.19D+00  5.11D+00    1.90337D-02
         5    1.18980D+00  0.00D+00  1.19D+00  5.13D+00    2.53783D-02
         6    1.19387D+00  0.00D+00  1.19D+00  5.16D+00    3.17228D-02
         7    1.19893D+00  0.00D+00  1.20D+00  5.19D+00    3.80674D-02
         8    1.20502D+00  0.00D+00  1.21D+00  5.23D+00    4.44119D-02
         9    1.21221D+00  0.00D+00  1.21D+00  5.28D+00    5.07565D-02

 ** RSPCTL MICROITERATION NUMBER    3

       No.  Residual tot.,    conf., and orb.    Bnorm      Frequency 
      ----------------------------------------------------------------
         1    2.62122D-01  0.00D+00  2.62D-01  5.22D+00    0.00000D+00
         2    2.62264D-01  0.00D+00  2.62D-01  5.23D+00    6.34456D-03
         3    2.62691D-01  0.00D+00  2.63D-01  5.24D+00    1.26891D-02
         4    2.63407D-01  0.00D+00  2.63D-01  5.25D+00    1.90337D-02
         5    2.64419D-01  0.00D+00  2.64D-01  5.27D+00    2.53783D-02
         6    2.65738D-01  0.00D+00  2.66D-01  5.30D+00    3.17228D-02
         7    2.67376D-01  0.00D+00  2.67D-01  5.34D+00    3.80674D-02
         8    2.69352D-01  0.00D+00  2.69D-01  5.38D+00    4.44119D-02
         9    2.71688D-01  0.00D+00  2.72D-01  5.43D+00    5.07565D-02

 ** RSPCTL MICROITERATION NUMBER    4

       No.  Residual tot.,    conf., and orb.    Bnorm      Frequency 
      ----------------------------------------------------------------
         1    5.96510D-02  0.00D+00  5.97D-02  5.23D+00    0.00000D+00
         2    5.97030D-02  0.00D+00  5.97D-02  5.23D+00    6.34456D-03
         3    5.98595D-02  0.00D+00  5.99D-02  5.24D+00    1.26891D-02
         4    6.01224D-02  0.00D+00  6.01D-02  5.26D+00    1.90337D-02
         5    6.04948D-02  0.00D+00  6.05D-02  5.28D+00    2.53783D-02
         6    6.09811D-02  0.00D+00  6.10D-02  5.31D+00    3.17228D-02
         7    6.15874D-02  0.00D+00  6.16D-02  5.34D+00    3.80674D-02
         8    6.23213D-02  0.00D+00  6.23D-02  5.39D+00    4.44119D-02
         9    6.31927D-02  0.00D+00  6.32D-02  5.44D+00    5.07565D-02

 ** RSPCTL MICROITERATION NUMBER    5

       No.  Residual tot.,    conf., and orb.    Bnorm      Frequency 
      ----------------------------------------------------------------
         1    1.03162D-02  0.00D+00  1.03D-02  5.23D+00    0.00000D+00
         2    1.03288D-02  0.00D+00  1.03D-02  5.23D+00    6.34456D-03
         3    1.03671D-02  0.00D+00  1.04D-02  5.24D+00    1.26891D-02
         4    1.04315D-02  0.00D+00  1.04D-02  5.26D+00    1.90337D-02
         5    1.05232D-02  0.00D+00  1.05D-02  5.28D+00    2.53783D-02
         6    1.06435D-02  0.00D+00  1.06D-02  5.31D+00    3.17228D-02
         7    1.07945D-02  0.00D+00  1.08D-02  5.34D+00    3.80674D-02
         8    1.09789D-02  0.00D+00  1.10D-02  5.39D+00    4.44119D-02
         9    1.11999D-02  0.00D+00  1.12D-02  5.44D+00    5.07565D-02

 ** RSPCTL MICROITERATION NUMBER    6

       No.  Residual tot.,    conf., and orb.    Bnorm      Frequency 
      ----------------------------------------------------------------
         1    1.53518D-03  0.00D+00  1.54D-03  5.23D+00    0.00000D+00
         2    1.53680D-03  0.00D+00  1.54D-03  5.23D+00    6.34456D-03
         3    1.54168D-03  0.00D+00  1.54D-03  5.24D+00    1.26891D-02
         4    1.54990D-03  0.00D+00  1.55D-03  5.26D+00    1.90337D-02
         5    1.56158D-03  0.00D+00  1.56D-03  5.28D+00    2.53783D-02
         6    1.57691D-03  0.00D+00  1.58D-03  5.31D+00    3.17228D-02
         7    1.59615D-03  0.00D+00  1.60D-03  5.34D+00    3.80674D-02
         8    1.61962D-03  0.00D+00  1.62D-03  5.39D+00    4.44119D-02
         9    1.64775D-03  0.00D+00  1.65D-03  5.44D+00    5.07565D-02

 *** THE REQUESTED    9 SOLUTION VECTORS CONVERGED

 Convergence of RSP solution vectors, threshold = 1.00D-03
 ---------------------------------------------------------------
 (dimension of paired reduced space:  104)
 RSP solution vector no.    1; norm of residual   2.94D-04
 RSP solution vector no.    2; norm of residual   2.94D-04
 RSP solution vector no.    3; norm of residual   2.94D-04
 RSP solution vector no.    4; norm of residual   2.95D-04
 RSP solution vector no.    5; norm of residual   2.96D-04
 RSP solution vector no.    6; norm of residual   2.97D-04
 RSP solution vector no.    7; norm of residual   2.99D-04
 RSP solution vector no.    8; norm of residual   3.01D-04
 RSP solution vector no.    9; norm of residual   3.03D-04

 *** RSPCTL MICROITERATIONS CONVERGED

@ QRLRVE: SINGLET SOLUTION FOR SYMMETRY    1  ( A  )    LABEL   XDIPLEN     FREQUENCY   0.000000D+00

@ QRLRVE:  << XDIPLEN  ; XDIPLEN  >> (   0.00000):     31.6593150401    

@ QRLRVE:  << YDIPLEN  ; XDIPLEN  >> (   0.00000):     12.8520638988    

@ QRLRVE:  << ZDIPLEN  ; XDIPLEN  >> (   0.00000):   -1.538492001519E-15

@ QRLRVE: SINGLET SOLUTION FOR SYMMETRY    1  ( A  )    LABEL   XDIPLEN     FREQUENCY   0.634456D-02

@ QRLRVE:  << XDIPLEN  ; XDIPLEN  >> (   0.00634):     31.6663188807    

@ QRLRVE:  << YDIPLEN  ; XDIPLEN  >> (   0.00634):     12.8601372082    

@ QRLRVE:  << ZDIPLEN  ; XDIPLEN  >> (   0.00634):   -1.552554500943E-15

@ QRLRVE: SINGLET SOLUTION FOR SYMMETRY    1  ( A  )    LABEL   XDIPLEN     FREQUENCY   0.126891D-01

@ QRLRVE:  << XDIPLEN  ; XDIPLEN  >> (   0.01269):     31.6873692150    

@ QRLRVE:  << YDIPLEN  ; XDIPLEN  >> (   0.01269):     12.8844277607    

@ QRLRVE:  << ZDIPLEN  ; XDIPLEN  >> (   0.01269):   -1.595135982237E-15

@ QRLRVE: SINGLET SOLUTION FOR SYMMETRY    1  ( A  )    LABEL   XDIPLEN     FREQUENCY   0.190337D-01

@ QRLRVE:  << XDIPLEN  ; XDIPLEN  >> (   0.01903):     31.7225832795    

@ QRLRVE:  << YDIPLEN  ; XDIPLEN  >> (   0.01903):     12.9251491573    

@ QRLRVE:  << ZDIPLEN  ; XDIPLEN  >> (   0.01903):   -1.667435980466E-15

@ QRLRVE: SINGLET SOLUTION FOR SYMMETRY    1  ( A  )    LABEL   XDIPLEN     FREQUENCY   0.253783D-01

@ QRLRVE:  << XDIPLEN  ; XDIPLEN  >> (   0.02538):     31.7721591670    

@ QRLRVE:  << YDIPLEN  ; XDIPLEN  >> (   0.02538):     12.9826632441    

@ QRLRVE:  << ZDIPLEN  ; XDIPLEN  >> (   0.02538):   -1.771513536832E-15

@ QRLRVE: SINGLET SOLUTION FOR SYMMETRY    1  ( A  )    LABEL   XDIPLEN     FREQUENCY   0.317228D-01

@ QRLRVE:  << XDIPLEN  ; XDIPLEN  >> (   0.03172):     31.8363800071    

@ QRLRVE:  << YDIPLEN  ; XDIPLEN  >> (   0.03172):     13.0574891824    

@ QRLRVE:  << ZDIPLEN  ; XDIPLEN  >> (   0.03172):   -1.910381227060E-15

@ QRLRVE: SINGLET SOLUTION FOR SYMMETRY    1  ( A  )    LABEL   XDIPLEN     FREQUENCY   0.380674D-01

@ QRLRVE:  << XDIPLEN  ; XDIPLEN  >> (   0.03807):     31.9156200930    

@ QRLRVE:  << YDIPLEN  ; XDIPLEN  >> (   0.03807):     13.1503167784    

@ QRLRVE:  << ZDIPLEN  ; XDIPLEN  >> (   0.03807):   -2.088145849214E-15

@ QRLRVE: SINGLET SOLUTION FOR SYMMETRY    1  ( A  )    LABEL   XDIPLEN     FREQUENCY   0.444119D-01

@ QRLRVE:  << XDIPLEN  ; XDIPLEN  >> (   0.04441):     32.0103532590    

@ QRLRVE:  << YDIPLEN  ; XDIPLEN  >> (   0.04441):     13.2620247709    

@ QRLRVE:  << ZDIPLEN  ; XDIPLEN  >> (   0.04441):   -2.310205906701E-15

@ QRLRVE: SINGLET SOLUTION FOR SYMMETRY    1  ( A  )    LABEL   XDIPLEN     FREQUENCY   0.507565D-01

@ QRLRVE:  << XDIPLEN  ; XDIPLEN  >> (   0.05076):     32.1211639380    

@ QRLRVE:  << YDIPLEN  ; XDIPLEN  >> (   0.05076):     13.3937050698    

@ QRLRVE:  << ZDIPLEN  ; XDIPLEN  >> (   0.05076):   -2.583520643149E-15


 QRLRVE -- linear response calculation for symmetry  1  ( A  )
 QRLRVE -- operator label : YDIPLEN 
 QRLRVE -- operator spin  :   0
 QRLRVE -- frequencies :  0.000000  0.006345  0.012689  0.019034  0.025378
                          0.031723  0.038067  0.044412  0.050757



 ---  SOLVING SETS OF LINEAR EQUATIONS FOR LINEAR RESPONSE PROPERTIES ---

 Operator symmetry = 1  ( A  ); triplet =   F

RSPORT:    2 out of    9 new trial vectors linear dependent

 ** RSPCTL MICROITERATION NUMBER    1

       No.  Residual tot.,    conf., and orb.    Bnorm      Frequency 
      ----------------------------------------------------------------
         1    4.75054D+00  0.00D+00  4.75D+00  5.64D+00    0.00000D+00
         2    4.75227D+00  0.00D+00  4.75D+00  5.64D+00    6.34456D-03
         3    4.75748D+00  0.00D+00  4.76D+00  5.66D+00    1.26891D-02
         4    4.76620D+00  0.00D+00  4.77D+00  5.68D+00    1.90337D-02
         5    4.77847D+00  0.00D+00  4.78D+00  5.70D+00    2.53783D-02
         6    4.79436D+00  0.00D+00  4.79D+00  5.74D+00    3.17228D-02
         7    4.81396D+00  0.00D+00  4.81D+00  5.78D+00    3.80674D-02
         8    4.83737D+00  0.00D+00  4.84D+00  5.84D+00    4.44119D-02
         9    4.86473D+00  0.00D+00  4.86D+00  5.90D+00    5.07565D-02

 ** RSPCTL MICROITERATION NUMBER    2

       No.  Residual tot.,    conf., and orb.    Bnorm      Frequency 
      ----------------------------------------------------------------
         1    1.56862D+00  0.00D+00  1.57D+00  7.48D+00    0.00000D+00
         2    1.56997D+00  0.00D+00  1.57D+00  7.48D+00    6.34456D-03
         3    1.57402D+00  0.00D+00  1.57D+00  7.51D+00    1.26891D-02
         4    1.58081D+00  0.00D+00  1.58D+00  7.54D+00    1.90337D-02
         5    1.59042D+00  0.00D+00  1.59D+00  7.60D+00    2.53783D-02
         6    1.60296D+00  0.00D+00  1.60D+00  7.66D+00    3.17228D-02
         7    1.61856D+00  0.00D+00  1.62D+00  7.75D+00    3.80674D-02
         8    1.63741D+00  0.00D+00  1.64D+00  7.85D+00    4.44119D-02
         9    1.65972D+00  0.00D+00  1.66D+00  7.97D+00    5.07565D-02

 ** RSPCTL MICROITERATION NUMBER    3

       No.  Residual tot.,    conf., and orb.    Bnorm      Frequency 
      ----------------------------------------------------------------
         1    3.37980D-01  0.00D+00  3.38D-01  7.69D+00    0.00000D+00
         2    3.38347D-01  0.00D+00  3.38D-01  7.70D+00    6.34456D-03
         3    3.39454D-01  0.00D+00  3.39D-01  7.72D+00    1.26891D-02
         4    3.41315D-01  0.00D+00  3.41D-01  7.76D+00    1.90337D-02
         5    3.43956D-01  0.00D+00  3.44D-01  7.82D+00    2.53783D-02
         6    3.47416D-01  0.00D+00  3.47D-01  7.89D+00    3.17228D-02
         7    3.51743D-01  0.00D+00  3.52D-01  7.99D+00    3.80674D-02
         8    3.57001D-01  0.00D+00  3.57D-01  8.10D+00    4.44119D-02
         9    3.63272D-01  0.00D+00  3.63D-01  8.23D+00    5.07565D-02

 ** RSPCTL MICROITERATION NUMBER    4

       No.  Residual tot.,    conf., and orb.    Bnorm      Frequency 
      ----------------------------------------------------------------
         1    5.92867D-02  0.00D+00  5.93D-02  7.70D+00    0.00000D+00
         2    5.93415D-02  0.00D+00  5.93D-02  7.70D+00    6.34456D-03
         3    5.95072D-02  0.00D+00  5.95D-02  7.73D+00    1.26891D-02
         4    5.97872D-02  0.00D+00  5.98D-02  7.77D+00    1.90337D-02
         5    6.01877D-02  0.00D+00  6.02D-02  7.83D+00    2.53783D-02
         6    6.07178D-02  0.00D+00  6.07D-02  7.90D+00    3.17228D-02
         7    6.13896D-02  0.00D+00  6.14D-02  7.99D+00    3.80674D-02
         8    6.22193D-02  0.00D+00  6.22D-02  8.10D+00    4.44119D-02
         9    6.32277D-02  0.00D+00  6.32D-02  8.24D+00    5.07565D-02

 ** RSPCTL MICROITERATION NUMBER    5

       No.  Residual tot.,    conf., and orb.    Bnorm      Frequency 
      ----------------------------------------------------------------
         1    1.16790D-02  0.00D+00  1.17D-02  7.70D+00    0.00000D+00
         2    1.17037D-02  0.00D+00  1.17D-02  7.70D+00    6.34456D-03
         3    1.17783D-02  0.00D+00  1.18D-02  7.73D+00    1.26891D-02
         4    1.19046D-02  0.00D+00  1.19D-02  7.77D+00    1.90337D-02
         5    1.20853D-02  0.00D+00  1.21D-02  7.83D+00    2.53783D-02
         6    1.23245D-02  0.00D+00  1.23D-02  7.90D+00    3.17228D-02
         7    1.26279D-02  0.00D+00  1.26D-02  7.99D+00    3.80674D-02
         8    1.30025D-02  0.00D+00  1.30D-02  8.10D+00    4.44119D-02
         9    1.34572D-02  0.00D+00  1.35D-02  8.24D+00    5.07565D-02

 ** RSPCTL MICROITERATION NUMBER    6

       No.  Residual tot.,    conf., and orb.    Bnorm      Frequency 
      ----------------------------------------------------------------
         1    2.50600D-03  0.00D+00  2.51D-03  7.70D+00    0.00000D+00
         2    2.51112D-03  0.00D+00  2.51D-03  7.70D+00    6.34456D-03
         3    2.52654D-03  0.00D+00  2.53D-03  7.73D+00    1.26891D-02
         4    2.55257D-03  0.00D+00  2.55D-03  7.77D+00    1.90337D-02
         5    2.58966D-03  0.00D+00  2.59D-03  7.83D+00    2.53783D-02
         6    2.63850D-03  0.00D+00  2.64D-03  7.90D+00    3.17228D-02
         7    2.70002D-03  0.00D+00  2.70D-03  7.99D+00    3.80674D-02
         8    2.77540D-03  0.00D+00  2.78D-03  8.10D+00    4.44119D-02
         9    2.86616D-03  0.00D+00  2.87D-03  8.24D+00    5.07565D-02

 *** THE REQUESTED    9 SOLUTION VECTORS CONVERGED

 Convergence of RSP solution vectors, threshold = 1.00D-03
 ---------------------------------------------------------------
 (dimension of paired reduced space:  104)
 RSP solution vector no.    1; norm of residual   3.26D-04
 RSP solution vector no.    2; norm of residual   3.26D-04
 RSP solution vector no.    3; norm of residual   3.27D-04
 RSP solution vector no.    4; norm of residual   3.29D-04
 RSP solution vector no.    5; norm of residual   3.31D-04
 RSP solution vector no.    6; norm of residual   3.34D-04
 RSP solution vector no.    7; norm of residual   3.38D-04
 RSP solution vector no.    8; norm of residual   3.42D-04
 RSP solution vector no.    9; norm of residual   3.48D-04

 *** RSPCTL MICROITERATIONS CONVERGED

@ QRLRVE: SINGLET SOLUTION FOR SYMMETRY    1  ( A  )    LABEL   YDIPLEN     FREQUENCY   0.000000D+00

@ QRLRVE:  << XDIPLEN  ; YDIPLEN  >> (   0.00000):     12.8526710341    

@ QRLRVE:  << YDIPLEN  ; YDIPLEN  >> (   0.00000):     47.7313579735    

@ QRLRVE:  << ZDIPLEN  ; YDIPLEN  >> (   0.00000):    3.286631723637E-15

@ QRLRVE: SINGLET SOLUTION FOR SYMMETRY    1  ( A  )    LABEL   YDIPLEN     FREQUENCY   0.634456D-02

@ QRLRVE:  << XDIPLEN  ; YDIPLEN  >> (   0.00634):     12.8607456401    

@ QRLRVE:  << YDIPLEN  ; YDIPLEN  >> (   0.00634):     47.7521698009    

@ QRLRVE:  << ZDIPLEN  ; YDIPLEN  >> (   0.00634):    3.290673708185E-15

@ QRLRVE: SINGLET SOLUTION FOR SYMMETRY    1  ( A  )    LABEL   YDIPLEN     FREQUENCY   0.126891D-01

@ QRLRVE:  << XDIPLEN  ; YDIPLEN  >> (   0.01269):     12.8850400984    

@ QRLRVE:  << YDIPLEN  ; YDIPLEN  >> (   0.01269):     47.8147783456    

@ QRLRVE:  << ZDIPLEN  ; YDIPLEN  >> (   0.01269):    3.302875862949E-15

@ QRLRVE: SINGLET SOLUTION FOR SYMMETRY    1  ( A  )    LABEL   YDIPLEN     FREQUENCY   0.190337D-01

@ QRLRVE:  << XDIPLEN  ; YDIPLEN  >> (   0.01903):     12.9257680585    

@ QRLRVE:  << YDIPLEN  ; YDIPLEN  >> (   0.01903):     47.9197070112    

@ QRLRVE:  << ZDIPLEN  ; YDIPLEN  >> (   0.01903):    3.323470337246E-15

@ QRLRVE: SINGLET SOLUTION FOR SYMMETRY    1  ( A  )    LABEL   YDIPLEN     FREQUENCY   0.253783D-01

@ QRLRVE:  << XDIPLEN  ; YDIPLEN  >> (   0.02538):     12.9832914484    

@ QRLRVE:  << YDIPLEN  ; YDIPLEN  >> (   0.02538):     48.0678423996    

@ QRLRVE:  << ZDIPLEN  ; YDIPLEN  >> (   0.02538):    3.352856123984E-15

@ QRLRVE: SINGLET SOLUTION FOR SYMMETRY    1  ( A  )    LABEL   YDIPLEN     FREQUENCY   0.317228D-01

@ QRLRVE:  << XDIPLEN  ; YDIPLEN  >> (   0.03172):     13.0581295460    

@ QRLRVE:  << YDIPLEN  ; YDIPLEN  >> (   0.03172):     48.2604564449    

@ QRLRVE:  << ZDIPLEN  ; YDIPLEN  >> (   0.03172):    3.391618103884E-15

@ QRLRVE: SINGLET SOLUTION FOR SYMMETRY    1  ( A  )    LABEL   YDIPLEN     FREQUENCY   0.380674D-01

@ QRLRVE:  << XDIPLEN  ; YDIPLEN  >> (   0.03807):     13.1509723119    

@ QRLRVE:  << YDIPLEN  ; YDIPLEN  >> (   0.03807):     48.4992389437    

@ QRLRVE:  << ZDIPLEN  ; YDIPLEN  >> (   0.03807):    3.440555663744E-15

@ QRLRVE: SINGLET SOLUTION FOR SYMMETRY    1  ( A  )    LABEL   YDIPLEN     FREQUENCY   0.444119D-01

@ QRLRVE:  << XDIPLEN  ; YDIPLEN  >> (   0.04441):     13.2626986787    

@ QRLRVE:  << YDIPLEN  ; YDIPLEN  >> (   0.04441):     48.7863421812    

@ QRLRVE:  << ZDIPLEN  ; YDIPLEN  >> (   0.04441):    3.500723093328E-15

@ QRLRVE: SINGLET SOLUTION FOR SYMMETRY    1  ( A  )    LABEL   YDIPLEN     FREQUENCY   0.507565D-01

@ QRLRVE:  << XDIPLEN  ; YDIPLEN  >> (   0.05076):     13.3944007948    

@ QRLRVE:  << YDIPLEN  ; YDIPLEN  >> (   0.05076):     49.1244400821    

@ QRLRVE:  << ZDIPLEN  ; YDIPLEN  >> (   0.05076):    3.573484990684E-15


 QRLRVE -- linear response calculation for symmetry  1  ( A  )
 QRLRVE -- operator label : ZDIPLEN 
 QRLRVE -- operator spin  :   0
 QRLRVE -- frequencies :  0.000000  0.006345  0.012689  0.019034  0.025378
                          0.031723  0.038067  0.044412  0.050757



 ---  SOLVING SETS OF LINEAR EQUATIONS FOR LINEAR RESPONSE PROPERTIES ---

 Operator symmetry = 1  ( A  ); triplet =   F

RSPORT:    2 out of    9 new trial vectors linear dependent

 ** RSPCTL MICROITERATION NUMBER    1

       No.  Residual tot.,    conf., and orb.    Bnorm      Frequency 
      ----------------------------------------------------------------
         1    1.79003D+00  0.00D+00  1.79D+00  3.64D+00    0.00000D+00
         2    1.79022D+00  0.00D+00  1.79D+00  3.64D+00    6.34456D-03
         3    1.79080D+00  0.00D+00  1.79D+00  3.64D+00    1.26891D-02
         4    1.79176D+00  0.00D+00  1.79D+00  3.65D+00    1.90337D-02
         5    1.79311D+00  0.00D+00  1.79D+00  3.66D+00    2.53783D-02
         6    1.79485D+00  0.00D+00  1.79D+00  3.67D+00    3.17228D-02
         7    1.79699D+00  0.00D+00  1.80D+00  3.68D+00    3.80674D-02
         8    1.79954D+00  0.00D+00  1.80D+00  3.69D+00    4.44119D-02
         9    1.80250D+00  0.00D+00  1.80D+00  3.71D+00    5.07565D-02

 ** RSPCTL MICROITERATION NUMBER    2

       No.  Residual tot.,    conf., and orb.    Bnorm      Frequency 
      ----------------------------------------------------------------
         1    4.60615D-01  0.00D+00  4.61D-01  3.87D+00    0.00000D+00
         2    4.60899D-01  0.00D+00  4.61D-01  3.88D+00    6.34456D-03
         3    4.61761D-01  0.00D+00  4.62D-01  3.88D+00    1.26891D-02
         4    4.63228D-01  0.00D+00  4.63D-01  3.89D+00    1.90337D-02
         5    4.65349D-01  0.00D+00  4.65D-01  3.90D+00    2.53783D-02
         6    4.68199D-01  0.00D+00  4.68D-01  3.91D+00    3.17228D-02
         7    4.71887D-01  0.00D+00  4.72D-01  3.92D+00    3.80674D-02
         8    4.76568D-01  0.00D+00  4.77D-01  3.94D+00    4.44119D-02
         9    4.82463D-01  0.00D+00  4.82D-01  3.96D+00    5.07565D-02

 ** RSPCTL MICROITERATION NUMBER    3

       No.  Residual tot.,    conf., and orb.    Bnorm      Frequency 
      ----------------------------------------------------------------
         1    5.85145D-02  0.00D+00  5.85D-02  3.89D+00    0.00000D+00
         2    5.85850D-02  0.00D+00  5.86D-02  3.89D+00    6.34456D-03
         3    5.88021D-02  0.00D+00  5.88D-02  3.90D+00    1.26891D-02
         4    5.91840D-02  0.00D+00  5.92D-02  3.90D+00    1.90337D-02
         5    5.97643D-02  0.00D+00  5.98D-02  3.91D+00    2.53783D-02
         6    6.05984D-02  0.00D+00  6.06D-02  3.93D+00    3.17228D-02
         7    6.17751D-02  0.00D+00  6.18D-02  3.95D+00    3.80674D-02
         8    6.34364D-02  0.00D+00  6.34D-02  3.97D+00    4.44119D-02
         9    6.58137D-02  0.00D+00  6.58D-02  4.00D+00    5.07565D-02

 ** RSPCTL MICROITERATION NUMBER    4

       No.  Residual tot.,    conf., and orb.    Bnorm      Frequency 
      ----------------------------------------------------------------
         1    7.80969D-03  0.00D+00  7.81D-03  3.89D+00    0.00000D+00
[...]
@ B-freq = 0.019034  C-freq = 0.019034     beta(Y;Z,Y) =     -0.00000000
@ B-freq = 0.019034  C-freq = 0.019034     beta(Z;Z,Y) =     42.21068400
@ B-freq = 0.025378  C-freq = 0.019034     beta(X;Z,Y) =      0.00000000
@ B-freq = 0.025378  C-freq = 0.019034     beta(Y;Z,Y) =     -0.00000000
@ B-freq = 0.025378  C-freq = 0.019034     beta(Z;Z,Y) =     42.27624863
@ B-freq = 0.000000  C-freq = 0.025378     beta(X;X,Y) = beta(X,Y,X)
@ B-freq = 0.000000  C-freq = 0.025378     beta(Y;X,Y) = beta(Y,Y,X)
@ B-freq = 0.000000  C-freq = 0.025378     beta(Z;X,Y) = beta(Z,Y,X)
@ B-freq = 0.006345  C-freq = 0.025378     beta(X;X,Y) = beta(X,Y,X)
@ B-freq = 0.006345  C-freq = 0.025378     beta(Y;X,Y) = beta(Y,Y,X)
@ B-freq = 0.006345  C-freq = 0.025378     beta(Z;X,Y) = beta(Z,Y,X)
@ B-freq = 0.012689  C-freq = 0.025378     beta(X;X,Y) = beta(X,Y,X)
@ B-freq = 0.012689  C-freq = 0.025378     beta(Y;X,Y) = beta(Y,Y,X)
@ B-freq = 0.012689  C-freq = 0.025378     beta(Z;X,Y) = beta(Z,Y,X)
@ B-freq = 0.019034  C-freq = 0.025378     beta(X;X,Y) = beta(X,Y,X)
@ B-freq = 0.019034  C-freq = 0.025378     beta(Y;X,Y) = beta(Y,Y,X)
@ B-freq = 0.019034  C-freq = 0.025378     beta(Z;X,Y) = beta(Z,Y,X)
@ B-freq = 0.025378  C-freq = 0.025378     beta(X;X,Y) = beta(X,Y,X)
@ B-freq = 0.025378  C-freq = 0.025378     beta(Y;X,Y) = beta(Y,Y,X)
@ B-freq = 0.025378  C-freq = 0.025378     beta(Z;X,Y) = beta(Z,Y,X)
@ B-freq = 0.000000  C-freq = 0.025378     beta(X;Y,Y) = beta(X,Y,Y)
@ B-freq = 0.000000  C-freq = 0.025378     beta(Y;Y,Y) = beta(Y,Y,Y)
@ B-freq = 0.000000  C-freq = 0.025378     beta(Z;Y,Y) = beta(Z,Y,Y)
@ B-freq = 0.006345  C-freq = 0.025378     beta(X;Y,Y) = beta(X,Y,Y)
@ B-freq = 0.006345  C-freq = 0.025378     beta(Y;Y,Y) = beta(Y,Y,Y)
@ B-freq = 0.006345  C-freq = 0.025378     beta(Z;Y,Y) = beta(Z,Y,Y)
@ B-freq = 0.012689  C-freq = 0.025378     beta(X;Y,Y) = beta(X,Y,Y)
@ B-freq = 0.012689  C-freq = 0.025378     beta(Y;Y,Y) = beta(Y,Y,Y)
@ B-freq = 0.012689  C-freq = 0.025378     beta(Z;Y,Y) = beta(Z,Y,Y)
@ B-freq = 0.019034  C-freq = 0.025378     beta(X;Y,Y) = beta(X,Y,Y)
@ B-freq = 0.019034  C-freq = 0.025378     beta(Y;Y,Y) = beta(Y,Y,Y)
@ B-freq = 0.019034  C-freq = 0.025378     beta(Z;Y,Y) = beta(Z,Y,Y)
@ B-freq = 0.025378  C-freq = 0.025378     beta(X;Y,Y) =     -0.82894699
@ B-freq = 0.025378  C-freq = 0.025378     beta(Y;Y,Y) =     65.42179494
@ B-freq = 0.025378  C-freq = 0.025378     beta(Z;Y,Y) =     -0.00000000
@ B-freq = 0.000000  C-freq = 0.025378     beta(X;Z,Y) =      0.00000000
@ B-freq = 0.000000  C-freq = 0.025378     beta(Y;Z,Y) =     -0.00000000
@ B-freq = 0.000000  C-freq = 0.025378     beta(Z;Z,Y) =     42.32870302
@ B-freq = 0.006345  C-freq = 0.025378     beta(X;Z,Y) =      0.00000000
@ B-freq = 0.006345  C-freq = 0.025378     beta(Y;Z,Y) =     -0.00000000
@ B-freq = 0.006345  C-freq = 0.025378     beta(Z;Z,Y) =     42.37208993
@ B-freq = 0.012689  C-freq = 0.025378     beta(X;Z,Y) =      0.00000000
@ B-freq = 0.012689  C-freq = 0.025378     beta(Y;Z,Y) =     -0.00000000
@ B-freq = 0.012689  C-freq = 0.025378     beta(Z;Z,Y) =     42.42758457
@ B-freq = 0.019034  C-freq = 0.025378     beta(X;Z,Y) =      0.00000000
@ B-freq = 0.019034  C-freq = 0.025378     beta(Y;Z,Y) =     -0.00000000
@ B-freq = 0.019034  C-freq = 0.025378     beta(Z;Z,Y) =     42.48862216
@ B-freq = 0.025378  C-freq = 0.025378     beta(X;Z,Y) =      0.00000000
@ B-freq = 0.025378  C-freq = 0.025378     beta(Y;Z,Y) =     -0.00000000
@ B-freq = 0.025378  C-freq = 0.025378     beta(Z;Z,Y) =     42.54433512
@ B-freq = 0.000000  C-freq = 0.000000     beta(X;X,Z) = beta(Z,X,X)
@ B-freq = 0.000000  C-freq = 0.000000     beta(Y;X,Z) = beta(Z,Y,X)
@ B-freq = 0.000000  C-freq = 0.000000     beta(Z;X,Z) = beta(Z,Z,X)
@ B-freq = 0.006345  C-freq = 0.000000     beta(X;X,Z) = beta(X,Z,X)
@ B-freq = 0.006345  C-freq = 0.000000     beta(Y;X,Z) = beta(Y,Z,X)
@ B-freq = 0.006345  C-freq = 0.000000     beta(Z;X,Z) = beta(Z,Z,X)
@ B-freq = 0.012689  C-freq = 0.000000     beta(X;X,Z) = beta(X,Z,X)
@ B-freq = 0.012689  C-freq = 0.000000     beta(Y;X,Z) = beta(Y,Z,X)
@ B-freq = 0.012689  C-freq = 0.000000     beta(Z;X,Z) = beta(Z,Z,X)
@ B-freq = 0.019034  C-freq = 0.000000     beta(X;X,Z) = beta(X,Z,X)
@ B-freq = 0.019034  C-freq = 0.000000     beta(Y;X,Z) = beta(Y,Z,X)
@ B-freq = 0.019034  C-freq = 0.000000     beta(Z;X,Z) = beta(Z,Z,X)
@ B-freq = 0.025378  C-freq = 0.000000     beta(X;X,Z) = beta(X,Z,X)
@ B-freq = 0.025378  C-freq = 0.000000     beta(Y;X,Z) = beta(Y,Z,X)
@ B-freq = 0.025378  C-freq = 0.000000     beta(Z;X,Z) = beta(Z,Z,X)
@ B-freq = 0.000000  C-freq = 0.000000     beta(X;Y,Z) = beta(Z,Y,X)
@ B-freq = 0.000000  C-freq = 0.000000     beta(Y;Y,Z) = beta(Z,Y,Y)
@ B-freq = 0.000000  C-freq = 0.000000     beta(Z;Y,Z) = beta(Z,Z,Y)
@ B-freq = 0.006345  C-freq = 0.000000     beta(X;Y,Z) = beta(X,Z,Y)
@ B-freq = 0.006345  C-freq = 0.000000     beta(Y;Y,Z) = beta(Y,Z,Y)
@ B-freq = 0.006345  C-freq = 0.000000     beta(Z;Y,Z) = beta(Z,Z,Y)
@ B-freq = 0.012689  C-freq = 0.000000     beta(X;Y,Z) = beta(X,Z,Y)
@ B-freq = 0.012689  C-freq = 0.000000     beta(Y;Y,Z) = beta(Y,Z,Y)
@ B-freq = 0.012689  C-freq = 0.000000     beta(Z;Y,Z) = beta(Z,Z,Y)
@ B-freq = 0.019034  C-freq = 0.000000     beta(X;Y,Z) = beta(X,Z,Y)
@ B-freq = 0.019034  C-freq = 0.000000     beta(Y;Y,Z) = beta(Y,Z,Y)
@ B-freq = 0.019034  C-freq = 0.000000     beta(Z;Y,Z) = beta(Z,Z,Y)
@ B-freq = 0.025378  C-freq = 0.000000     beta(X;Y,Z) = beta(X,Z,Y)
@ B-freq = 0.025378  C-freq = 0.000000     beta(Y;Y,Z) = beta(Y,Z,Y)
@ B-freq = 0.025378  C-freq = 0.000000     beta(Z;Y,Z) = beta(Z,Z,Y)
@ B-freq = 0.000000  C-freq = 0.000000     beta(X;Z,Z) = beta(Z,Z,X)
@ B-freq = 0.000000  C-freq = 0.000000     beta(Y;Z,Z) = beta(Z,Z,Y)
@ B-freq = 0.000000  C-freq = 0.000000     beta(X;Z,Z) =     21.77086085
@ B-freq = 0.000000  C-freq = 0.000000     beta(Y;Z,Z) =     41.71459411
@ B-freq = 0.000000  C-freq = 0.000000     beta(Z;Z,Z) =     -0.00000000
@ B-freq = 0.006345  C-freq = 0.000000     beta(X;Z,Z) =     21.78939256
@ B-freq = 0.006345  C-freq = 0.000000     beta(Y;Z,Z) =     41.75275062
@ B-freq = 0.006345  C-freq = 0.000000     beta(Z;Z,Z) =     -0.00000000
@ B-freq = 0.012689  C-freq = 0.000000     beta(X;Z,Z) =     21.84509244
@ B-freq = 0.012689  C-freq = 0.000000     beta(Y;Z,Z) =     41.86740865
@ B-freq = 0.012689  C-freq = 0.000000     beta(Z;Z,Z) =     -0.00000000
@ B-freq = 0.019034  C-freq = 0.000000     beta(X;Z,Z) =     21.93826868
@ B-freq = 0.019034  C-freq = 0.000000     beta(Y;Z,Z) =     42.05911406
@ B-freq = 0.019034  C-freq = 0.000000     beta(Z;Z,Z) =     -0.00000000
@ B-freq = 0.025378  C-freq = 0.000000     beta(X;Z,Z) =     22.06941237
@ B-freq = 0.025378  C-freq = 0.000000     beta(Y;Z,Z) =     42.32870412
@ B-freq = 0.025378  C-freq = 0.000000     beta(Z;Z,Z) =     -0.00000000
@ B-freq = 0.000000  C-freq = 0.006345     beta(X;X,Z) = beta(X,Z,X)
@ B-freq = 0.000000  C-freq = 0.006345     beta(Y;X,Z) = beta(Y,Z,X)
@ B-freq = 0.000000  C-freq = 0.006345     beta(Z;X,Z) = beta(Z,Z,X)
@ B-freq = 0.006345  C-freq = 0.006345     beta(X;X,Z) = beta(X,Z,X)
@ B-freq = 0.006345  C-freq = 0.006345     beta(Y;X,Z) = beta(Y,Z,X)
@ B-freq = 0.006345  C-freq = 0.006345     beta(Z;X,Z) = beta(Z,Z,X)
@ B-freq = 0.012689  C-freq = 0.006345     beta(X;X,Z) = beta(X,Z,X)
@ B-freq = 0.012689  C-freq = 0.006345     beta(Y;X,Z) = beta(Y,Z,X)
@ B-freq = 0.012689  C-freq = 0.006345     beta(Z;X,Z) = beta(Z,Z,X)
@ B-freq = 0.019034  C-freq = 0.006345     beta(X;X,Z) = beta(X,Z,X)
@ B-freq = 0.019034  C-freq = 0.006345     beta(Y;X,Z) = beta(Y,Z,X)
@ B-freq = 0.019034  C-freq = 0.006345     beta(Z;X,Z) = beta(Z,Z,X)
@ B-freq = 0.025378  C-freq = 0.006345     beta(X;X,Z) = beta(X,Z,X)
@ B-freq = 0.025378  C-freq = 0.006345     beta(Y;X,Z) = beta(Y,Z,X)
@ B-freq = 0.025378  C-freq = 0.006345     beta(Z;X,Z) = beta(Z,Z,X)
@ B-freq = 0.000000  C-freq = 0.006345     beta(X;Y,Z) = beta(X,Z,Y)
@ B-freq = 0.000000  C-freq = 0.006345     beta(Y;Y,Z) = beta(Y,Z,Y)
@ B-freq = 0.000000  C-freq = 0.006345     beta(Z;Y,Z) = beta(Z,Z,Y)
@ B-freq = 0.006345  C-freq = 0.006345     beta(X;Y,Z) = beta(X,Z,Y)
@ B-freq = 0.006345  C-freq = 0.006345     beta(Y;Y,Z) = beta(Y,Z,Y)
@ B-freq = 0.006345  C-freq = 0.006345     beta(Z;Y,Z) = beta(Z,Z,Y)
@ B-freq = 0.012689  C-freq = 0.006345     beta(X;Y,Z) = beta(X,Z,Y)
@ B-freq = 0.012689  C-freq = 0.006345     beta(Y;Y,Z) = beta(Y,Z,Y)
@ B-freq = 0.012689  C-freq = 0.006345     beta(Z;Y,Z) = beta(Z,Z,Y)
@ B-freq = 0.019034  C-freq = 0.006345     beta(X;Y,Z) = beta(X,Z,Y)
@ B-freq = 0.019034  C-freq = 0.006345     beta(Y;Y,Z) = beta(Y,Z,Y)
@ B-freq = 0.019034  C-freq = 0.006345     beta(Z;Y,Z) = beta(Z,Z,Y)
@ B-freq = 0.025378  C-freq = 0.006345     beta(X;Y,Z) = beta(X,Z,Y)
@ B-freq = 0.025378  C-freq = 0.006345     beta(Y;Y,Z) = beta(Y,Z,Y)
@ B-freq = 0.025378  C-freq = 0.006345     beta(Z;Y,Z) = beta(Z,Z,Y)
@ B-freq = 0.000000  C-freq = 0.006345     beta(X;Z,Z) = beta(X,Z,Z)
@ B-freq = 0.000000  C-freq = 0.006345     beta(Y;Z,Z) = beta(Y,Z,Z)
@ B-freq = 0.000000  C-freq = 0.006345     beta(Z;Z,Z) = beta(Z,Z,Z)
@ B-freq = 0.006345  C-freq = 0.006345     beta(X;Z,Z) =     21.83936099
@ B-freq = 0.006345  C-freq = 0.006345     beta(Y;Z,Z) =     41.85764309
@ B-freq = 0.006345  C-freq = 0.006345     beta(Z;Z,Z) =     -0.00000000
@ B-freq = 0.012689  C-freq = 0.006345     beta(X;Z,Z) =     21.92695397
@ B-freq = 0.012689  C-freq = 0.006345     beta(Y;Z,Z) =     42.04006829
@ B-freq = 0.012689  C-freq = 0.006345     beta(Z;Z,Z) =     -0.00000000
@ B-freq = 0.019034  C-freq = 0.006345     beta(X;Z,Z) =     22.05280802
@ B-freq = 0.019034  C-freq = 0.006345     beta(Y;Z,Z) =     42.30130950
@ B-freq = 0.019034  C-freq = 0.006345     beta(Z;Z,Z) =     -0.00000000
@ B-freq = 0.025378  C-freq = 0.006345     beta(X;Z,Z) =     22.21776258
@ B-freq = 0.025378  C-freq = 0.006345     beta(Y;Z,Z) =     42.64298522
@ B-freq = 0.025378  C-freq = 0.006345     beta(Z;Z,Z) =     -0.00000000
@ B-freq = 0.000000  C-freq = 0.012689     beta(X;X,Z) = beta(X,Z,X)
@ B-freq = 0.000000  C-freq = 0.012689     beta(Y;X,Z) = beta(Y,Z,X)
@ B-freq = 0.000000  C-freq = 0.012689     beta(Z;X,Z) = beta(Z,Z,X)
@ B-freq = 0.006345  C-freq = 0.012689     beta(X;X,Z) = beta(X,Z,X)
@ B-freq = 0.006345  C-freq = 0.012689     beta(Y;X,Z) = beta(Y,Z,X)
@ B-freq = 0.006345  C-freq = 0.012689     beta(Z;X,Z) = beta(Z,Z,X)
@ B-freq = 0.012689  C-freq = 0.012689     beta(X;X,Z) = beta(X,Z,X)
@ B-freq = 0.012689  C-freq = 0.012689     beta(Y;X,Z) = beta(Y,Z,X)
@ B-freq = 0.012689  C-freq = 0.012689     beta(Z;X,Z) = beta(Z,Z,X)
@ B-freq = 0.019034  C-freq = 0.012689     beta(X;X,Z) = beta(X,Z,X)
@ B-freq = 0.019034  C-freq = 0.012689     beta(Y;X,Z) = beta(Y,Z,X)
@ B-freq = 0.019034  C-freq = 0.012689     beta(Z;X,Z) = beta(Z,Z,X)
@ B-freq = 0.025378  C-freq = 0.012689     beta(X;X,Z) = beta(X,Z,X)
@ B-freq = 0.025378  C-freq = 0.012689     beta(Y;X,Z) = beta(Y,Z,X)
@ B-freq = 0.025378  C-freq = 0.012689     beta(Z;X,Z) = beta(Z,Z,X)
@ B-freq = 0.000000  C-freq = 0.012689     beta(X;Y,Z) = beta(X,Z,Y)
@ B-freq = 0.000000  C-freq = 0.012689     beta(Y;Y,Z) = beta(Y,Z,Y)
@ B-freq = 0.000000  C-freq = 0.012689     beta(Z;Y,Z) = beta(Z,Z,Y)
@ B-freq = 0.006345  C-freq = 0.012689     beta(X;Y,Z) = beta(X,Z,Y)
@ B-freq = 0.006345  C-freq = 0.012689     beta(Y;Y,Z) = beta(Y,Z,Y)
@ B-freq = 0.006345  C-freq = 0.012689     beta(Z;Y,Z) = beta(Z,Z,Y)
@ B-freq = 0.012689  C-freq = 0.012689     beta(X;Y,Z) = beta(X,Z,Y)
@ B-freq = 0.012689  C-freq = 0.012689     beta(Y;Y,Z) = beta(Y,Z,Y)
@ B-freq = 0.012689  C-freq = 0.012689     beta(Z;Y,Z) = beta(Z,Z,Y)
@ B-freq = 0.019034  C-freq = 0.012689     beta(X;Y,Z) = beta(X,Z,Y)
@ B-freq = 0.019034  C-freq = 0.012689     beta(Y;Y,Z) = beta(Y,Z,Y)
@ B-freq = 0.019034  C-freq = 0.012689     beta(Z;Y,Z) = beta(Z,Z,Y)
@ B-freq = 0.025378  C-freq = 0.012689     beta(X;Y,Z) = beta(X,Z,Y)
@ B-freq = 0.025378  C-freq = 0.012689     beta(Y;Y,Z) = beta(Y,Z,Y)
@ B-freq = 0.025378  C-freq = 0.012689     beta(Z;Y,Z) = beta(Z,Z,Y)
@ B-freq = 0.000000  C-freq = 0.012689     beta(X;Z,Z) = beta(X,Z,Z)
@ B-freq = 0.000000  C-freq = 0.012689     beta(Y;Z,Z) = beta(Y,Z,Z)
@ B-freq = 0.000000  C-freq = 0.012689     beta(Z;Z,Z) = beta(Z,Z,Z)
@ B-freq = 0.006345  C-freq = 0.012689     beta(X;Z,Z) = beta(X,Z,Z)
@ B-freq = 0.006345  C-freq = 0.012689     beta(Y;Z,Z) = beta(Y,Z,Z)
@ B-freq = 0.006345  C-freq = 0.012689     beta(Z;Z,Z) = beta(Z,Z,Z)
@ B-freq = 0.012689  C-freq = 0.012689     beta(X;Z,Z) =     22.04718949
@ B-freq = 0.012689  C-freq = 0.012689     beta(Y;Z,Z) =     42.29196338
@ B-freq = 0.012689  C-freq = 0.012689     beta(Z;Z,Z) =     -0.00000000
@ B-freq = 0.019034  C-freq = 0.012689     beta(X;Z,Z) =     22.20678171
@ B-freq = 0.019034  C-freq = 0.012689     beta(Y;Z,Z) =     42.62515749
@ B-freq = 0.019034  C-freq = 0.012689     beta(Z;Z,Z) =     -0.00000000
@ B-freq = 0.025378  C-freq = 0.012689     beta(X;Z,Z) =     22.40694433
@ B-freq = 0.025378  C-freq = 0.012689     beta(Y;Z,Z) =     43.04211190
@ B-freq = 0.025378  C-freq = 0.012689     beta(Z;Z,Z) =     -0.00000000
@ B-freq = 0.000000  C-freq = 0.019034     beta(X;X,Z) = beta(X,Z,X)
@ B-freq = 0.000000  C-freq = 0.019034     beta(Y;X,Z) = beta(Y,Z,X)
@ B-freq = 0.000000  C-freq = 0.019034     beta(Z;X,Z) = beta(Z,Z,X)
@ B-freq = 0.006345  C-freq = 0.019034     beta(X;X,Z) = beta(X,Z,X)
@ B-freq = 0.006345  C-freq = 0.019034     beta(Y;X,Z) = beta(Y,Z,X)
@ B-freq = 0.006345  C-freq = 0.019034     beta(Z;X,Z) = beta(Z,Z,X)
@ B-freq = 0.012689  C-freq = 0.019034     beta(X;X,Z) = beta(X,Z,X)
@ B-freq = 0.012689  C-freq = 0.019034     beta(Y;X,Z) = beta(Y,Z,X)
@ B-freq = 0.012689  C-freq = 0.019034     beta(Z;X,Z) = beta(Z,Z,X)
@ B-freq = 0.019034  C-freq = 0.019034     beta(X;X,Z) = beta(X,Z,X)
@ B-freq = 0.019034  C-freq = 0.019034     beta(Y;X,Z) = beta(Y,Z,X)
@ B-freq = 0.019034  C-freq = 0.019034     beta(Z;X,Z) = beta(Z,Z,X)
@ B-freq = 0.025378  C-freq = 0.019034     beta(X;X,Z) = beta(X,Z,X)
@ B-freq = 0.025378  C-freq = 0.019034     beta(Y;X,Z) = beta(Y,Z,X)
@ B-freq = 0.025378  C-freq = 0.019034     beta(Z;X,Z) = beta(Z,Z,X)
@ B-freq = 0.000000  C-freq = 0.019034     beta(X;Y,Z) = beta(X,Z,Y)
@ B-freq = 0.000000  C-freq = 0.019034     beta(Y;Y,Z) = beta(Y,Z,Y)
@ B-freq = 0.000000  C-freq = 0.019034     beta(Z;Y,Z) = beta(Z,Z,Y)
@ B-freq = 0.006345  C-freq = 0.019034     beta(X;Y,Z) = beta(X,Z,Y)
@ B-freq = 0.006345  C-freq = 0.019034     beta(Y;Y,Z) = beta(Y,Z,Y)
@ B-freq = 0.006345  C-freq = 0.019034     beta(Z;Y,Z) = beta(Z,Z,Y)
@ B-freq = 0.012689  C-freq = 0.019034     beta(X;Y,Z) = beta(X,Z,Y)
@ B-freq = 0.012689  C-freq = 0.019034     beta(Y;Y,Z) = beta(Y,Z,Y)
@ B-freq = 0.012689  C-freq = 0.019034     beta(Z;Y,Z) = beta(Z,Z,Y)
@ B-freq = 0.019034  C-freq = 0.019034     beta(X;Y,Z) = beta(X,Z,Y)
@ B-freq = 0.019034  C-freq = 0.019034     beta(Y;Y,Z) = beta(Y,Z,Y)
@ B-freq = 0.019034  C-freq = 0.019034     beta(Z;Y,Z) = beta(Z,Z,Y)
@ B-freq = 0.025378  C-freq = 0.019034     beta(X;Y,Z) = beta(X,Z,Y)
@ B-freq = 0.025378  C-freq = 0.019034     beta(Y;Y,Z) = beta(Y,Z,Y)
@ B-freq = 0.025378  C-freq = 0.019034     beta(Z;Y,Z) = beta(Z,Z,Y)
@ B-freq = 0.000000  C-freq = 0.019034     beta(X;Z,Z) = beta(X,Z,Z)
@ B-freq = 0.000000  C-freq = 0.019034     beta(Y;Z,Z) = beta(Y,Z,Z)
@ B-freq = 0.000000  C-freq = 0.019034     beta(Z;Z,Z) = beta(Z,Z,Z)
@ B-freq = 0.006345  C-freq = 0.019034     beta(X;Z,Z) = beta(X,Z,Z)
@ B-freq = 0.006345  C-freq = 0.019034     beta(Y;Z,Z) = beta(Y,Z,Z)
@ B-freq = 0.006345  C-freq = 0.019034     beta(Z;Z,Z) = beta(Z,Z,Z)
@ B-freq = 0.012689  C-freq = 0.019034     beta(X;Z,Z) = beta(X,Z,Z)
@ B-freq = 0.012689  C-freq = 0.019034     beta(Y;Z,Z) = beta(Y,Z,Z)
@ B-freq = 0.012689  C-freq = 0.019034     beta(Z;Z,Z) = beta(Z,Z,Z)
@ B-freq = 0.019034  C-freq = 0.019034     beta(X;Z,Z) =     22.40154568
@ B-freq = 0.019034  C-freq = 0.019034     beta(Y;Z,Z) =     43.03356652
@ B-freq = 0.019034  C-freq = 0.019034     beta(Z;Z,Z) =     -0.00000000
@ B-freq = 0.025378  C-freq = 0.019034     beta(X;Z,Z) =     22.63872420
@ B-freq = 0.025378  C-freq = 0.019034     beta(Y;Z,Z) =     43.52992756
@ B-freq = 0.025378  C-freq = 0.019034     beta(Z;Z,Z) =     -0.00000000
@ B-freq = 0.000000  C-freq = 0.025378     beta(X;X,Z) = beta(X,Z,X)
@ B-freq = 0.000000  C-freq = 0.025378     beta(Y;X,Z) = beta(Y,Z,X)
@ B-freq = 0.000000  C-freq = 0.025378     beta(Z;X,Z) = beta(Z,Z,X)
@ B-freq = 0.006345  C-freq = 0.025378     beta(X;X,Z) = beta(X,Z,X)
@ B-freq = 0.006345  C-freq = 0.025378     beta(Y;X,Z) = beta(Y,Z,X)
@ B-freq = 0.006345  C-freq = 0.025378     beta(Z;X,Z) = beta(Z,Z,X)
@ B-freq = 0.012689  C-freq = 0.025378     beta(X;X,Z) = beta(X,Z,X)
@ B-freq = 0.012689  C-freq = 0.025378     beta(Y;X,Z) = beta(Y,Z,X)
@ B-freq = 0.012689  C-freq = 0.025378     beta(Z;X,Z) = beta(Z,Z,X)
@ B-freq = 0.019034  C-freq = 0.025378     beta(X;X,Z) = beta(X,Z,X)
@ B-freq = 0.019034  C-freq = 0.025378     beta(Y;X,Z) = beta(Y,Z,X)
@ B-freq = 0.019034  C-freq = 0.025378     beta(Z;X,Z) = beta(Z,Z,X)
@ B-freq = 0.025378  C-freq = 0.025378     beta(X;X,Z) = beta(X,Z,X)
@ B-freq = 0.025378  C-freq = 0.025378     beta(Y;X,Z) = beta(Y,Z,X)
@ B-freq = 0.025378  C-freq = 0.025378     beta(Z;X,Z) = beta(Z,Z,X)
@ B-freq = 0.000000  C-freq = 0.025378     beta(X;Y,Z) = beta(X,Z,Y)
@ B-freq = 0.000000  C-freq = 0.025378     beta(Y;Y,Z) = beta(Y,Z,Y)
@ B-freq = 0.000000  C-freq = 0.025378     beta(Z;Y,Z) = beta(Z,Z,Y)
@ B-freq = 0.006345  C-freq = 0.025378     beta(X;Y,Z) = beta(X,Z,Y)
@ B-freq = 0.006345  C-freq = 0.025378     beta(Y;Y,Z) = beta(Y,Z,Y)
@ B-freq = 0.006345  C-freq = 0.025378     beta(Z;Y,Z) = beta(Z,Z,Y)
@ B-freq = 0.012689  C-freq = 0.025378     beta(X;Y,Z) = beta(X,Z,Y)
@ B-freq = 0.012689  C-freq = 0.025378     beta(Y;Y,Z) = beta(Y,Z,Y)
@ B-freq = 0.012689  C-freq = 0.025378     beta(Z;Y,Z) = beta(Z,Z,Y)
@ B-freq = 0.019034  C-freq = 0.025378     beta(X;Y,Z) = beta(X,Z,Y)
@ B-freq = 0.019034  C-freq = 0.025378     beta(Y;Y,Z) = beta(Y,Z,Y)
@ B-freq = 0.019034  C-freq = 0.025378     beta(Z;Y,Z) = beta(Z,Z,Y)
@ B-freq = 0.025378  C-freq = 0.025378     beta(X;Y,Z) = beta(X,Z,Y)
@ B-freq = 0.025378  C-freq = 0.025378     beta(Y;Y,Z) = beta(Y,Z,Y)
@ B-freq = 0.025378  C-freq = 0.025378     beta(Z;Y,Z) = beta(Z,Z,Y)
@ B-freq = 0.000000  C-freq = 0.025378     beta(X;Z,Z) = beta(X,Z,Z)
@ B-freq = 0.000000  C-freq = 0.025378     beta(Y;Z,Z) = beta(Y,Z,Z)
@ B-freq = 0.000000  C-freq = 0.025378     beta(Z;Z,Z) = beta(Z,Z,Z)
@ B-freq = 0.006345  C-freq = 0.025378     beta(X;Z,Z) = beta(X,Z,Z)
@ B-freq = 0.006345  C-freq = 0.025378     beta(Y;Z,Z) = beta(Y,Z,Z)
@ B-freq = 0.006345  C-freq = 0.025378     beta(Z;Z,Z) = beta(Z,Z,Z)
@ B-freq = 0.012689  C-freq = 0.025378     beta(X;Z,Z) = beta(X,Z,Z)
@ B-freq = 0.012689  C-freq = 0.025378     beta(Y;Z,Z) = beta(Y,Z,Z)
@ B-freq = 0.012689  C-freq = 0.025378     beta(Z;Z,Z) = beta(Z,Z,Z)
@ B-freq = 0.019034  C-freq = 0.025378     beta(X;Z,Z) = beta(X,Z,Z)
@ B-freq = 0.019034  C-freq = 0.025378     beta(Y;Z,Z) = beta(Y,Z,Z)
@ B-freq = 0.019034  C-freq = 0.025378     beta(Z;Z,Z) = beta(Z,Z,Z)
@ B-freq = 0.025378  C-freq = 0.025378     beta(X;Z,Z) =     22.91518577
@ B-freq = 0.025378  C-freq = 0.025378     beta(Y;Z,Z) =     44.11087006
@ B-freq = 0.025378  C-freq = 0.025378     beta(Z;Z,Z) =     -0.00000000

  Total CPU  time used in RESPONSE: 44 minutes  2 seconds
  Total wall time used in RESPONSE: 44 minutes 30 seconds


                   .-------------------------------------------.
                   | End of Dynamic Property Section (RESPONS) |
                   `-------------------------------------------'

  Total CPU  time used in DALTON: 46 minutes 58 seconds
  Total wall time used in DALTON: 47 minutes 27 seconds

 
     Date and time (Linux)  : Wed Sep 13 19:47:34 2023
     Host name              : sn-mem                                  
