

     ************************************************************************
     *************** Dalton - An Electronic Structure Program ***************
     ************************************************************************

    This is output from DALTON release Dalton2020.0 (2020)
         ( Web site: http://daltonprogram.org )

   ----------------------------------------------------------------------------

    NOTE:
     
    Dalton is an experimental code for the evaluation of molecular
    properties using (MC)SCF, DFT, CI, and CC wave functions.
    The authors accept no responsibility for the performance of
    the code or for the correctness of the results.
     
    The code (in whole or part) is provided under a licence and
    is not to be reproduced for further distribution without
    the written permission of the authors or their representatives.
     
    See the home page "http://daltonprogram.org" for further information.
     
    If results obtained with this code are published,
    the appropriate citations would be both of:
     
       K. Aidas, C. Angeli, K. L. Bak, V. Bakken, R. Bast,
       L. Boman, O. Christiansen, R. Cimiraglia, S. Coriani,
       P. Dahle, E. K. Dalskov, U. Ekstroem,
       T. Enevoldsen, J. J. Eriksen, P. Ettenhuber, B. Fernandez,
       L. Ferrighi, H. Fliegl, L. Frediani, K. Hald, A. Halkier,
       C. Haettig, H. Heiberg, T. Helgaker, A. C. Hennum,
       H. Hettema, E. Hjertenaes, S. Hoest, I.-M. Hoeyvik,
       M. F. Iozzi, B. Jansik, H. J. Aa. Jensen, D. Jonsson,
       P. Joergensen, J. Kauczor, S. Kirpekar,
       T. Kjaergaard, W. Klopper, S. Knecht, R. Kobayashi, H. Koch,
       J. Kongsted, A. Krapp, K. Kristensen, A. Ligabue,
       O. B. Lutnaes, J. I. Melo, K. V. Mikkelsen, R. H. Myhre,
       C. Neiss, C. B. Nielsen, P. Norman, J. Olsen,
       J. M. H. Olsen, A. Osted, M. J. Packer, F. Pawlowski,
       T. B. Pedersen, P. F. Provasi, S. Reine, Z. Rinkevicius,
       T. A. Ruden, K. Ruud, V. Rybkin, P. Salek, C. C. M. Samson,
       A. Sanchez de Meras, T. Saue, S. P. A. Sauer,
       B. Schimmelpfennig, K. Sneskov, A. H. Steindal,
       K. O. Sylvester-Hvid, P. R. Taylor, A. M. Teale,
       E. I. Tellgren, D. P. Tew, A. J. Thorvaldsen, L. Thoegersen,
       O. Vahtras, M. A. Watson, D. J. D. Wilson, M. Ziolkowski
       and H. Agren,
       "The Dalton quantum chemistry program system",
       WIREs Comput. Mol. Sci. 2014, 4:269–284 (doi: 10.1002/wcms.1172)
     
    and
     
       Dalton, a molecular electronic structure program,
       Release Dalton2020.0 (2020), see http://daltonprogram.org
   ----------------------------------------------------------------------------

    Authors in alphabetical order (Major contribution(s) in parenthesis):

  Kestutis Aidas,           Vilnius University,           Lithuania   (QM/MM)
  Celestino Angeli,         University of Ferrara,        Italy       (NEVPT2)
  Keld L. Bak,              UNI-C,                        Denmark     (AOSOPPA, non-adiabatic coupling, magnetic properties)
  Vebjoern Bakken,          University of Oslo,           Norway      (DALTON; geometry optimizer, symmetry detection)
  Radovan Bast,             UiT The Arctic U. of Norway,  Norway      (DALTON installation and execution frameworks)
  Pablo Baudin,             University of Valencia,       Spain       (Cholesky excitation energies)
  Linus Boman,              NTNU,                         Norway      (Cholesky decomposition and subsystems)
  Bruno N. Cabral Tenorio,  Technical Univ. of Denmark,   Denmark     (Lanczos-based CC methods)
  Ove Christiansen,         Aarhus University,            Denmark     (CC module)
  Renzo Cimiraglia,         University of Ferrara,        Italy       (NEVPT2)
  Sonia Coriani,            Technical Univ. of Denmark,   Denmark     (CC and RESPONS modules)
  Janusz Cukras,            University of Warsaw,         Poland      (MChD in RESPONS)
  Paal Dahle,               University of Oslo,           Norway      (Parallelization)
  Erik K. Dalskov,          UNI-C,                        Denmark     (SOPPA)
  Thomas Enevoldsen,        Univ. of Southern Denmark,    Denmark     (SOPPA)
  Janus J. Eriksen,         Aarhus University,            Denmark     (Polarizable embedding, TDA)
  Rasmus Faber,             Technical Univ. of Denmark,   Denmark     (Vib.avg. NMR w. SOPPA, parallel AO-SOPPA, CVS-CC and EOMCC)
  Tobias Fahleson,          KTH Stockholm,                Sweden      (Damped cubic response)
  Berta Fernandez,          U. of Santiago de Compostela, Spain       (Doublet spin, ESR in RESPONS)
  Lara Ferrighi,            Aarhus University,            Denmark     (PCM Cubic response)
  Heike Fliegl,             University of Oslo,           Norway      (CCSD(R12))
  Luca Frediani,            UiT The Arctic U. of Norway,  Norway      (PCM)
  Emmanuel Fromager,        Univ. Strasbourg,             France      (MC-srDFT)
  Bin Gao,                  UiT The Arctic U. of Norway,  Norway      (Gen1Int library)
  Andre S. P. Gomes,        CNRS/Universite de Lille,     France      (Frozen density embedding)
  Christof Haettig,         Ruhr-University Bochum,       Germany     (CC module)
  Kasper Hald,              Aarhus University,            Denmark     (CC module)
  Asger Halkier,            Aarhus University,            Denmark     (CC module)
  Frederik Beyer Hansen,    University of Copenhagen,     Denmark     (Parallel AO-SOPPA)
  Erik D. Hedegaard,        Univ. of Southern Denmark,    Denmark     (Polarizable embedding, QM/MM, and MC-srDFT)
  Hanne Heiberg,            University of Oslo,           Norway      (Geometry analysis, selected one-electron integrals)
  Trygve Helgaker,          University of Oslo,           Norway      (DALTON; ABACUS, ERI, DFT modules, London, and much more)
  Alf Christian Hennum,     University of Oslo,           Norway      (Parity violation)
  Hinne Hettema,            University of Auckland,       New Zealand (Quadratic response in RESPONS; SIRIUS supersymmetry)
  Eirik Hjertenaes,         NTNU,                         Norway      (Cholesky decomposition)
  Pi A. B. Haase,           University of Copenhagen,     Denmark     (Triplet AO-SOPPA)
  Maria Francesca Iozzi,    University of Oslo,           Norway      (RPA)
  Christoph Jacob           TU Braunschweig               Germany     (Frozen density embedding)
  Brano Jansik              Technical Univ. of Ostrava    Czech Rep.  (DFT cubic response)
  Hans Joergen Aa. Jensen,  Univ. of Southern Denmark,    Denmark     (DALTON; SIRIUS, RESPONS, ABACUS, MC-srDFT, and much more)
  Dan Jonsson,              UiT The Arctic U. of Norway,  Norway      (Cubic response in RESPONS module)
  Poul Joergensen,          Aarhus University,            Denmark     (RESPONS, ABACUS, and CC modules)
  Maciej Kaminski,          University of Warsaw,         Poland      (CPPh in RESPONS)
  Joanna Kauczor,           Linkoeping University,        Sweden      (Complex polarization propagator (CPP) module)
  Sheela Kirpekar,          Univ. of Southern Denmark,    Denmark     (Mass-velocity & Darwin integrals)
  Erik Kjellgren,           Univ. of Southern Denmark,    Denmark     (MC-srDFT)
  Wim Klopper,              KIT Karlsruhe,                Germany     (R12 code in CC, SIRIUS, and ABACUS modules)
  Stefan Knecht,            ETH Zurich,                   Switzerland (Parallel CI and MCSCF, MC-srDFT)
  Rika Kobayashi,           Australian National Univ.,    Australia   (DIIS in CC, London in MCSCF)
  Henrik Koch,              NTNU,                         Norway      (CC module, Cholesky decomposition)
  Jacob Kongsted,           Univ. of Southern Denmark,    Denmark     (Polarizable embedding, polarizable density embedding, QM/MM)
  Andrea Ligabue,           University of Modena,         Italy       (CTOCD, AOSOPPA)
  Nanna H. List             Univ. of Southern Denmark,    Denmark     (Polarizable embedding)
  Ola B. Lutnaes,           University of Oslo,           Norway      (DFT Hessian)
  Juan I. Melo,             University of Buenos Aires,   Argentina   (LRESC, Relativistic Effects on NMR Shieldings)
  Kurt V. Mikkelsen,        University of Copenhagen,     Denmark     (MC-SCRF and QM/MM)
  Rolf H. Myhre,            NTNU,                         Norway      (Subsystems and CC3)
  Christian Neiss,          Univ. Erlangen-Nuernberg,     Germany     (CCSD(R12))
  Christian B. Nielsen,     University of Copenhagen,     Denmark     (QM/MM)
  Patrick Norman,           KTH Stockholm,                Sweden      (Cubic response and complex frequency response in RESPONS)
  Jeppe Olsen,              Aarhus University,            Denmark     (SIRIUS CI/density modules)
  Jogvan Magnus H. Olsen,   Aarhus University,            Denmark     (Polarizable embedding and polarizable density embedding)
  Anders Osted,             Copenhagen University,        Denmark     (QM/MM)
  Martin J. Packer,         University of Sheffield,      UK          (SOPPA)
  Filip Pawlowski,          Kazimierz Wielki University,  Poland      (CC3)
  Morten N. Pedersen,       Univ. of Southern Denmark,    Denmark     (Polarizable embedding)
  Thomas B. Pedersen,       University of Oslo,           Norway      (Cholesky decomposition)
  Patricio F. Provasi,      University of Northeastern,   Argentina   (Analysis of coupling constants in localized orbitals)
  Peter Reinholdt,          Univ. of Southern Denmark,    Denmark     (Polarizable embedding and polarizable density embedding)
  Zilvinas Rinkevicius,     KTH Stockholm,                Sweden      (open-shell DFT, ESR)
  Elias Rudberg,            KTH Stockholm,                Sweden      (DFT grid and basis info)
  Torgeir A. Ruden,         University of Oslo,           Norway      (Numerical derivatives in ABACUS)
  Kenneth Ruud,             UiT The Arctic U. of Norway,  Norway      (DALTON; ABACUS magnetic properties and much more)
  Pawel Salek,              KTH Stockholm,                Sweden      (DALTON; DFT code)
  Claire C. M. Samson       University of Karlsruhe       Germany     (Boys localization, r12 integrals in ERI)
  Alfredo Sanchez de Meras, University of Valencia,       Spain       (CC module, Cholesky decomposition)
  Trond Saue,               Paul Sabatier University,     France      (direct Fock matrix construction)
  Stephan P. A. Sauer,      University of Copenhagen,     Denmark     (SOPPA(CCSD), SOPPA prop., AOSOPPA, vibrational g-factors)
  Bernd Schimmelpfennig,    Forschungszentrum Karlsruhe,  Germany     (AMFI module)
  Anna K. Schnack-Petersen, University of Copenhagen,     Denmark     (RPA(D) and HRPA(D) properties in AOSOPPA)
  Kristian Sneskov,         Aarhus University,            Denmark     (Polarizable embedding, QM/MM)
  Arnfinn H. Steindal,      UiT The Arctic U. of Norway,  Norway      (parallel QM/MM, polarizable embedding)
  Casper Steinmann,         Aalborg University,           Denmark     (QFIT, polarizable embedding)
  K. O. Sylvester-Hvid,     University of Copenhagen,     Denmark     (MC-SCRF)
  Peter R. Taylor,          VLSCI/Univ. of Melbourne,     Australia   (Symmetry handling ABACUS, integral transformation)
  Andrew M. Teale,          University of Nottingham,     England     (DFT-AC, DFT-D)
  David P. Tew,             University of Bristol,        England     (CCSD(R12))
  Julien Toulouse,          Sorbonne Univ.,               France      (MC-srDFT)
  Olav Vahtras,             KTH Stockholm,                Sweden      (Triplet response, spin-orbit, ESR, TDDFT, open-shell DFT)
  Lucas Visscher,           Vrije Universiteit Amsterdam, Netherlands (Frozen density embedding)
  David J. Wilson,          La Trobe University,          Australia   (DFT Hessian and DFT magnetizabilities)
  Hans Agren,               KTH Stockholm,                Sweden      (SIRIUS module, RESPONS, MC-SCRF solvation)
 --------------------------------------------------------------------------------

     Date and time (Linux)  : Sat Jul 27 21:06:24 2024
     Host name              : dn006                                   

 * Work memory size             :    64000000 =  488.28 megabytes.

 * Directories for basis set searches:
   1) /gpfs/projects/rjh/adrian/beta_paper_database/dalton/hf/NOCl/dipole
   2) /gpfs/projects/rjh/adrian/dalton/build/basis


Compilation information
-----------------------

 Who compiled             | ahurtado
 Host                     | sn-mem
 System                   | Linux-3.10.0-1160.81.1.el7.x86_64
 CMake generator          | Unix Makefiles
 Processor                | x86_64
 64-bit integers          | OFF
 MPI                      | ON
 Fortran compiler         | /gpfs/software/intel/oneAPI/2021_4/mpi/2021.4.0/bi
                          | n/mpiifort
 Fortran compiler version | unknown
 C compiler               | /gpfs/software/intel/oneAPI/2021_4/mpi/2021.4.0/bi
                          | n/mpiicc
 C compiler version       | unknown
 C++ compiler             | /gpfs/software/intel/oneAPI/2021_4/mpi/2021.4.0/bi
                          | n/mpiicpc
 C++ compiler version     | unknown
 Static linking           | OFF
 Last Git revision        | 66052b3af5ea7225e31178bf9a8b031913c72190
 Git branch               | (HEAD detached at Dalton2020.0)
 Configuration time       | 2024-05-30 10:57:17.145493

 * MPI parallel run using 38 processes.


   Content of the .dal input file
 ----------------------------------

**DALTON INPUT
.RUN RESPONSE
.DIRECT
**WAVE FUNCTIONS
.HF
**PROPERTIES
**RESPONSE
*QUADRA
.DIPLEN
.FREQUENCIES
5
0.0 0.0063445625 0.012689125 0.0190336875 0.02537825
**END OF DALTON INPUT


   Content of the .mol file
 ----------------------------

BASIS
q-aug-cc-pCVTZ
blah
blah
Atomtype=3 Angstrom Charge=0 Nosymmmetry
Charge=17 Atoms=1
Cl_a -0.531200001141 -0.929799999232 0.000000000000
Charge=7 Atoms=1
N_a 0.000000000000 0.972399997674 0.000000000000
Charge=8 Atoms=1
O_a 1.128700001162 1.124999999397 0.000000000000


       *******************************************************************
       *********** Output from DALTON general input processing ***********
       *******************************************************************

 --------------------------------------------------------------------------------
   Overall default print level:    0
   Print level for DALTON.STAT:    1

    Parallel calculation using MPI
    AO-direct calculation (in sections where implemented)
    HERMIT 1- and 2-electron integral sections will be executed
    "Old" integral transformation used (limited to max 255 basis functions)
    Wave function sections will be executed (SIRIUS module)
    Dynamic molecular response properties section will be executed (RESPONSE module)
 --------------------------------------------------------------------------------


   ****************************************************************************
   *************** Output of molecule and basis set information ***************
   ****************************************************************************


    The two title cards from your ".mol" input:
    ------------------------------------------------------------------------
 1: blah                                                                    
 2: blah                                                                    
    ------------------------------------------------------------------------

  Coordinates are entered in Angstrom and converted to atomic units.
          - Conversion factor : 1 bohr = 0.52917721 A

  Atomic type no.    1
  --------------------
  Nuclear charge:  17.00000
  Number of symmetry independent centers:    1
  Number of basis sets to read;    2
  Basis set file used for this atomic type with Z =  17 :
     "/gpfs/projects/rjh/adrian/dalton/build/basis/aug-cc-pCVTZ"

  Atomic type no.    2
  --------------------
  Nuclear charge:   7.00000
  Number of symmetry independent centers:    1
  Number of basis sets to read;    2
  Basis set file used for this atomic type with Z =   7 :
     "/gpfs/projects/rjh/adrian/dalton/build/basis/aug-cc-pCVTZ"

  Atomic type no.    3
  --------------------
  Nuclear charge:   8.00000
  Number of symmetry independent centers:    1
  Number of basis sets to read;    2
  Basis set file used for this atomic type with Z =   8 :
     "/gpfs/projects/rjh/adrian/dalton/build/basis/aug-cc-pCVTZ"


                         SYMGRP: Point group information
                         -------------------------------

@    Point group: C1 


                                 Isotopic Masses
                                 ---------------

                           Cl_a       34.968853
                           N_a        14.003074
                           O_a        15.994915

                       Total mass:    64.966842 amu
                       Natural abundance:  75.308 %

 Center-of-mass coordinates (a.u.):   -0.015184   -0.026271    0.000000
 Center-of-mass coordinates (Angs):   -0.008035   -0.013902    0.000000


  Atoms and basis sets
  --------------------

  Number of atom types :    3
  Total number of atoms:    3

  Basis set used is "q-aug-cc-pCVTZ" from the basis set library.

  label    atoms   charge   prim   cont     basis
  ----------------------------------------------------------------------
  Cl          1   17.0000   148   123      [21s15p8d6f|11s10p8d6f]                            
  N_          1    7.0000   119   107      [16s11p7d5f|10s9p7d5f]                             
  O_          1    8.0000   119   107      [16s11p7d5f|10s9p7d5f]                             
  ----------------------------------------------------------------------
  total:      3   32.0000   386   337
  ----------------------------------------------------------------------
  Spherical harmonic basis used.

  Threshold for neglecting AO integrals:  1.00D-12


  Cartesian Coordinates (a.u.)
  ----------------------------

  Total number of coordinates:    9
  Cl_a    :     1  x  -1.0038225198    2  y  -1.7570673496    3  z   0.0000000000
  N_a     :     4  x   0.0000000000    5  y   1.8375696795    6  z   0.0000000000
  O_a     :     7  x   2.1329338795    8  y   2.1259418895    9  z   0.0000000000


   Interatomic separations (in Angstrom):
   --------------------------------------

            Cl_a        N_a         O_a   
            ------      ------      ------
 Cl_a  :    0.000000
 N_a   :    1.974978    0.000000
 O_a   :    2.641490    1.138969    0.000000


  Max    interatomic separation is    2.6415 Angstrom (    4.9917 Bohr)
  between atoms    3 and    1, "O_a   " and "Cl_a  ".

  Min YX interatomic separation is    1.1390 Angstrom (    2.1523 Bohr)


  Bond distances (Angstrom):
  --------------------------

                  atom 1     atom 2       distance
                  ------     ------       --------
  bond distance:  N_a        Cl_a         1.974978
  bond distance:  O_a        N_a          1.138969


  Bond angles (degrees):
  ----------------------

                  atom 1     atom 2     atom 3         angle
                  ------     ------     ------         -----
  bond angle:     Cl_a       N_a        O_a          113.302




 Principal moments of inertia (u*A**2) and principal axes
 --------------------------------------------------------

   IA       5.840433          0.544616    0.838686    0.000000
   IB      88.102929          0.838686   -0.544616    0.000000
   IC      93.943362          0.000000    0.000000    1.000000


 Rotational constants
 --------------------

@    The molecule is planar.

               A                   B                   C

          86531.0810           5736.2339           5379.6138 MHz
            2.886366            0.191340            0.179445 cm-1


@  Nuclear repulsion energy :   85.148419784453 Hartree


                     .---------------------------------------.
                     | Starting in Integral Section (HERMIT) |
                     `---------------------------------------'



 ***************************************************************************************
 ****************** Output from **INTEGRALS input processing (HERMIT) ******************
 ***************************************************************************************


 - Using defaults, no **INTEGRALS input found

 Default print level:        1

 Calculation of one-electron Hamiltonian integrals.

 Center of mass  (bohr):     -0.015183530523     -0.026271029737      0.000000000000
 Operator center (bohr):      0.000000000000      0.000000000000      0.000000000000
 Gauge origin    (bohr):      0.000000000000      0.000000000000      0.000000000000
 Dipole origin   (bohr):      0.000000000000      0.000000000000      0.000000000000


     ************************************************************************
     ************************** Output from HERINT **************************
     ************************************************************************



                      Nuclear contribution to dipole moments
                      --------------------------------------

                 au               Debye          C m (/(10**-30)

      x     -0.00151180        -0.00384261        -0.01281757
      y      0.00037793         0.00096060         0.00320422
      z      0.00000000         0.00000000         0.00000000


  Time used in GABGEN     is       1.59 seconds
  Total CPU  time used in HERMIT:   1.98 seconds
  Total wall time used in HERMIT:   1.99 seconds


                        .----------------------------------.
                        | End of Integral Section (HERMIT) |
                        `----------------------------------'



                   .--------------------------------------------.
                   | Starting in Wave Function Section (SIRIUS) |
                   `--------------------------------------------'



@ Primary orbitals are deleted during canonical orthonormalization
@   because of detected numerical linear dependence or too large coefficients.
@ Eigenvalue threshold for num. lin. dep. =  1.00D-06

@   1 MO components are deleted in symmetry    1
 Overlap eigenvalues of the deleted orbitals:
  5.56D-07

 Max MO coeff. of last deleted MO & limit:  8.63D+02  1.00D+03

WARNING: Orbitals have been deleted because of numerical
   linear dependence although not requested in input.

 *** Output from Huckel module :

     Using EWMO model:          T
     Using EHT  model:          F
     Number of Huckel orbitals each symmetry:   24

 EWMO - Energy Weighted Maximum Overlap - is a Huckel type method,
        which normally is better than Extended Huckel Theory.
 Reference: Linderberg and Ohrn, Propagators in Quantum Chemistry (Wiley, 1973)

 Huckel EWMO eigenvalues for symmetry :  1
         -104.883930     -20.685569     -15.673202     -10.608489      -8.072407
           -8.072214      -8.072213      -1.708026      -1.175229      -0.898477
           -0.756044      -0.739435      -0.598849      -0.506247      -0.484719
           -0.442076      -0.370251      -0.309233      -0.187242      -0.055540
           -0.055527      -0.054317      -0.054072      -0.050572

 **********************************************************************
 *SIRIUS* a direct, restricted step, second order MCSCF program       *
 **********************************************************************

 
     Date and time (Linux)  : Sat Jul 27 21:06:27 2024
     Host name              : dn006                                   

 Title lines from ".mol" input file:
     blah                                                                    
     blah                                                                    

 Print level on unit LUPRI =   2 is   0
 Print level on unit LUW4  =   2 is   5

@    Restricted, closed shell Hartree-Fock calculation.

@    Time-dependent Hartree-Fock calculation (random phase approximation).
 Fock matrices are calculated directly and in parallel without use of integrals on disk.

 Initial molecular orbitals are obtained according to
 ".MOSTART EWMO  " input option

     Wave function specification
     ============================
@    Wave function type        --- HF ---
@    Number of closed shell electrons          32
@    Number of electrons in active shells       0
@    Total charge of the molecule               0

@    Spin multiplicity and 2 M_S                1         0
@    Total number of symmetries                 1 (point group: C1 )
@    Reference state symmetry                   1 (irrep name : A  )

     Orbital specifications
     ======================
@    Abelian symmetry species          All |    1
@                                          |  A  
                                       --- |  ---
@    Occupied SCF orbitals              16 |   16
@    Secondary orbitals                320 |  320
@    Total number of orbitals          336 |  336
@    Number of basis functions         337 |  337

     Optimization information
     ========================
@    Number of configurations                 1
@    Number of orbital rotations           5120
     ------------------------------------------
@    Total number of variables             5121

     Maximum number of Fock   iterations      0
     Maximum number of DIIS   iterations     60
     Maximum number of QC-SCF iterations     60
     Threshold for SCF convergence     1.00D-05

    INFORMATION: Switched to "new" integral transformation (from 1988 ;-) )
    because more than 255 basis functions.


 ***********************************************
 ***** DIIS acceleration of SCF iterations *****
 ***********************************************

 C1-DIIS algorithm; max error vectors =    8

 Iter      Total energy        Error norm    Delta(E)  DIIS dim.
 -----------------------------------------------------------------------------
   1  Screening settings (-IFTHRS, JTDIIS, DIFDEN, times)   -9    1    T  5.04D+00  5.06D+00
@  1    -588.363818940        3.05180D+00   -5.88D+02    1
      Virial theorem: -V/T =      2.000472
@    MULPOP   Cl_a   -0.21; N_a     0.52; O_a    -0.31; 
   1  Level shift: doubly occupied orbital energies shifted by -2.00D-01
 -----------------------------------------------------------------------------
   2  Screening settings (-IFTHRS, JTDIIS, DIFDEN, times)   -9    2    T  5.02D+00  5.04D+00
@  2    -588.703782980        1.15115D+00   -3.40D-01    2
      Virial theorem: -V/T =      2.000226
@    MULPOP   Cl_a   -0.30; N_a     0.23; O_a     0.07; 
   2  Level shift: doubly occupied orbital energies shifted by -1.00D-01
 -----------------------------------------------------------------------------
   3  Screening settings (-IFTHRS, JTDIIS, DIFDEN, times)   -9    3    T  5.01D+00  5.03D+00
@  3    -588.760399475        4.11997D-01   -5.66D-02    3
      Virial theorem: -V/T =      2.000161
@    MULPOP   Cl_a   -0.46; N_a     0.63; O_a    -0.17; 
   3  Level shift: doubly occupied orbital energies shifted by -5.00D-02
 -----------------------------------------------------------------------------
   4  Screening settings (-IFTHRS, JTDIIS, DIFDEN, times)   -9    4    T  4.94D+00  4.97D+00
@  4    -588.769473582        1.11532D-01   -9.07D-03    4
      Virial theorem: -V/T =      2.000755
@    MULPOP   Cl_a   -0.49; N_a     0.58; O_a    -0.08; 
   4  Level shift: doubly occupied orbital energies shifted by -2.50D-02
 -----------------------------------------------------------------------------
   5  Screening settings (-IFTHRS, JTDIIS, DIFDEN, times)  -13    5    F  5.04D+00  5.07D+00
@  5    -588.770698994        4.06431D-02   -1.23D-03    5
      Virial theorem: -V/T =      2.000548
@    MULPOP   Cl_a   -0.49; N_a     0.58; O_a    -0.09; 
   5  Level shift: doubly occupied orbital energies shifted by -1.25D-02
 -----------------------------------------------------------------------------
   6  Screening settings (-IFTHRS, JTDIIS, DIFDEN, times)  -13    6    T  5.01D+00  5.04D+00
@  6    -588.770927247        1.73391D-02   -2.28D-04    6
      Virial theorem: -V/T =      2.000545
@    MULPOP   Cl_a   -0.50; N_a     0.59; O_a    -0.09; 
 -----------------------------------------------------------------------------
   7  Screening settings (-IFTHRS, JTDIIS, DIFDEN, times)  -13    7    T  5.03D+00  5.06D+00
@  7    -588.770990544        6.71084D-03   -6.33D-05    7
      Virial theorem: -V/T =      2.000572
@    MULPOP   Cl_a   -0.49; N_a     0.58; O_a    -0.09; 
 -----------------------------------------------------------------------------
   8  Screening settings (-IFTHRS, JTDIIS, DIFDEN, times)  -13    8    T  5.01D+00  5.04D+00
@  8    -588.771002483        2.84197D-03   -1.19D-05    8
      Virial theorem: -V/T =      2.000558
@    MULPOP   Cl_a   -0.49; N_a     0.58; O_a    -0.09; 
 -----------------------------------------------------------------------------
   9  Screening settings (-IFTHRS, JTDIIS, DIFDEN, times)  -13    9    T  5.06D+00  5.08D+00
@  9    -588.771004724        1.09563D-03   -2.24D-06    8
      Virial theorem: -V/T =      2.000558
@    MULPOP   Cl_a   -0.49; N_a     0.58; O_a    -0.09; 
 -----------------------------------------------------------------------------
  10  Screening settings (-IFTHRS, JTDIIS, DIFDEN, times)  -13   10    T  5.05D+00  5.07D+00
@ 10    -588.771005079        3.55405D-04   -3.55D-07    8
      Virial theorem: -V/T =      2.000558
@    MULPOP   Cl_a   -0.49; N_a     0.58; O_a    -0.09; 
 -----------------------------------------------------------------------------
  11  Screening settings (-IFTHRS, JTDIIS, DIFDEN, times)  -13   11    T  4.99D+00  5.01D+00
@ 11    -588.771005117        1.56285D-04   -3.83D-08    8
      Virial theorem: -V/T =      2.000558
@    MULPOP   Cl_a   -0.49; N_a     0.58; O_a    -0.09; 
 -----------------------------------------------------------------------------
  12  Screening settings (-IFTHRS, JTDIIS, DIFDEN, times)  -13   12    T  5.05D+00  5.07D+00
@ 12    -588.771005124        5.18110D-05   -6.33D-09    8
      Virial theorem: -V/T =      2.000558
@    MULPOP   Cl_a   -0.49; N_a     0.58; O_a    -0.09; 
 -----------------------------------------------------------------------------
  13  Screening settings (-IFTHRS, JTDIIS, DIFDEN, times)  -13   13    T  4.95D+00  4.97D+00
@ 13    -588.771005124        2.65349D-05   -3.09D-10    8
      Virial theorem: -V/T =      2.000558
@    MULPOP   Cl_a   -0.49; N_a     0.58; O_a    -0.09; 
 -----------------------------------------------------------------------------
  14  Screening settings (-IFTHRS, JTDIIS, DIFDEN, times)  -13   14    T  4.94D+00  4.96D+00
@ 14    -588.771005124        7.81609D-06   -7.72D-11    8

@ *** DIIS converged in  14 iterations !
@     Converged SCF energy, gradient:   -588.771005123903    7.82D-06
    - total time used in SIRFCK :              0.00 seconds


 *** SCF orbital energy analysis ***

 Only the 20 lowest virtual orbital energies printed in each symmetry.

 Number of electrons :   32
 Orbital occupations :   16

 Sym       Hartree-Fock orbital energies

1 A    -104.83565242   -20.75683549   -15.85402409   -10.55926217    -8.02531509
         -8.02395688    -8.02389405    -1.68277920    -1.10532983    -0.96900122
         -0.77208284    -0.76382998    -0.72582800    -0.45892934    -0.45856862
         -0.43124163     0.00108269     0.00174428     0.00185966     0.00197675
          0.00406002     0.00420607     0.00424592     0.00493999     0.00533994
          0.00538978     0.00653743     0.00951949     0.00979252     0.01164003
          0.01295970     0.01430852     0.01438920     0.01486075     0.01523735
          0.01607530

    E(LUMO) :     0.00108269 au (symmetry 1)
  - E(HOMO) :    -0.43124163 au (symmetry 1)
  ------------------------------------------
    gap     :     0.43232431 au

 --- Writing SIRIFC interface file

 CPU and wall time for SCF :      71.981      72.368


                       .-----------------------------------.
                       | --- Final results from SIRIUS --- |
                       `-----------------------------------'


@    Spin multiplicity:           1
@    Spatial symmetry:            1 ( irrep  A   in C1  )
@    Total charge of molecule:    0

@    Final HF energy:            -588.771005123903                 
@    Nuclear repulsion:            85.148419784453
@    Electronic energy:          -673.919424908356

@    Final gradient norm:           0.000007816091

 
     Date and time (Linux)  : Sat Jul 27 21:07:40 2024
     Host name              : dn006                                   

File label for MO orbitals:  27Jul24   FOCKDIIS

 (Only coefficients > 0.0100 are printed.)

 Molecular orbitals for symmetry species 1  (A  )
 ------------------------------------------------

    Orbital         7        8        9       10       11       12       13
   3 Cl_a:1s    -0.0012  -0.0343   0.7878   0.4659  -0.1460  -0.2662   0.0000
   5 Cl_a:1s     0.0021  -0.0042   0.0198   0.0251  -0.0405  -0.0502  -0.0000
   8 Cl_a:1s    -0.0038   0.0998   0.0225  -0.0152   0.0114   0.0571   0.0000
   9 Cl_a:1s     0.0076  -0.0328  -0.0261  -0.0338  -0.0441   0.0371   0.0000
  10 Cl_a:1s     0.0080   0.0947  -0.1095   0.0158   0.0558  -0.0905  -0.0000
  11 Cl_a:1s     0.0004   0.0227  -0.0340   0.0037   0.0067  -0.0272  -0.0000
  12 Cl_a:2px    0.9674  -0.0007  -0.0007   0.0001  -0.0009  -0.0018  -0.0000
  13 Cl_a:2py   -0.2508  -0.0006  -0.0007   0.0007  -0.0008  -0.0032  -0.0000
  15 Cl_a:2px   -0.0055  -0.0132   0.0219  -0.0141   0.0995   0.0273   0.0000
  16 Cl_a:2py    0.0013  -0.0247   0.0903  -0.0852   0.1098   0.2460  -0.0000
  17 Cl_a:2pz    0.0000  -0.0000  -0.0000   0.0000  -0.0000   0.0000  -0.0969
  21 Cl_a:2px    0.0100   0.0138   0.0060  -0.0005  -0.0159   0.0136  -0.0000
  22 Cl_a:2py    0.0017   0.0115  -0.0174   0.0267  -0.0184  -0.0542  -0.0000
  23 Cl_a:2pz    0.0000   0.0000  -0.0000   0.0000  -0.0000   0.0000   0.0311
  30 Cl_a:2px    0.0227  -0.0408  -0.0305  -0.0251   0.0062  -0.0919   0.0000
  31 Cl_a:2py    0.0036   0.0017  -0.0668  -0.0148  -0.0024  -0.0072  -0.0000
  32 Cl_a:2pz    0.0000  -0.0000   0.0000  -0.0000   0.0000  -0.0000  -0.0550
  33 Cl_a:2px    0.0026  -0.0007   0.0016  -0.0371  -0.0145  -0.0430   0.0000
  34 Cl_a:2py    0.0052   0.0477  -0.0582   0.0301   0.0486  -0.0517  -0.0000
  35 Cl_a:2pz    0.0000  -0.0000   0.0000  -0.0000   0.0000  -0.0000   0.0459
  37 Cl_a:2py    0.0018   0.0045  -0.0109   0.0020   0.0070  -0.0131  -0.0000
  56 Cl_a:3d2+   0.0002   0.0016  -0.0062   0.0050  -0.0029  -0.0122   0.0000
  57 Cl_a:3d2-  -0.0005  -0.0045   0.0066  -0.0032   0.0111   0.0048   0.0000
  58 Cl_a:3d1-   0.0000  -0.0000   0.0000  -0.0000   0.0000  -0.0000  -0.0102
  59 Cl_a:3d0   -0.0001   0.0024  -0.0070   0.0036  -0.0071  -0.0106  -0.0000
  61 Cl_a:3d2+  -0.0007   0.0029  -0.0115   0.0067  -0.0077  -0.0182   0.0000
  62 Cl_a:3d2-   0.0039   0.0130   0.0040   0.0012  -0.0033   0.0166   0.0000
  63 Cl_a:3d1-   0.0000  -0.0000   0.0000  -0.0000   0.0000  -0.0000   0.0197
  66 Cl_a:3d2+   0.0010  -0.0007   0.0076  -0.0065   0.0025   0.0182   0.0000
  67 Cl_a:3d2-   0.0079  -0.0230  -0.0192  -0.0058  -0.0032  -0.0361   0.0000
  68 Cl_a:3d1-   0.0000  -0.0000   0.0000  -0.0000   0.0000  -0.0000  -0.0240
  69 Cl_a:3d0   -0.0023   0.0107   0.0161   0.0041   0.0023   0.0106  -0.0000
  71 Cl_a:3d2+   0.0021   0.0039   0.0131   0.0027   0.0047  -0.0140   0.0000
  72 Cl_a:3d2-   0.0015   0.0006  -0.0017  -0.0125  -0.0036  -0.0083   0.0000
  73 Cl_a:3d1-   0.0000  -0.0000   0.0000  -0.0000   0.0000  -0.0000   0.0100
  76 Cl_a:3d2+   0.0010  -0.0134   0.0069  -0.0035  -0.0157   0.0070   0.0000
 124 N_a :1s    -0.0004   0.0263   0.0025  -0.0017  -0.0042   0.0155  -0.0000
 125 N_a :1s    -0.0015  -0.4614   0.3638  -0.6148  -0.1326   0.3790  -0.0000
 126 N_a :1s     0.0004  -0.0195  -0.0027  -0.0065  -0.0001  -0.0114  -0.0000
 127 N_a :1s    -0.0030   0.1102   0.0243  -0.0206  -0.0896   0.1443  -0.0000
 130 N_a :1s    -0.0067  -0.0172   0.0723   0.0959  -0.0426   0.1404  -0.0000
 131 N_a :1s     0.0051  -0.0773   0.0371  -0.0026  -0.0367   0.0485   0.0000
 132 N_a :1s     0.0014  -0.1003   0.0706  -0.0229  -0.0622   0.0935   0.0000
 133 N_a :1s     0.0010   0.0067  -0.0217   0.0035  -0.0014  -0.0042  -0.0000
 134 N_a :2px    0.0001  -0.3004  -0.1488   0.0344   0.2840  -0.6376  -0.0000
 135 N_a :2py    0.0000  -0.0306  -0.1368  -0.0822  -0.4480  -0.1526   0.0000
 136 N_a :2pz   -0.0000   0.0000  -0.0000  -0.0000  -0.0000  -0.0000  -0.5573
 137 N_a :2px   -0.0006   0.0419   0.0131  -0.0027  -0.0209   0.0493   0.0000
 140 N_a :2px    0.0003   0.1295   0.0431  -0.0168  -0.0593   0.0946  -0.0000
 141 N_a :2py    0.0066   0.0360   0.0397   0.0145   0.1106   0.0562  -0.0000
 142 N_a :2pz   -0.0000   0.0000  -0.0000   0.0000  -0.0000   0.0000   0.0799
 149 N_a :2px   -0.0247   0.1921   0.0289   0.0452   0.0633   0.1491  -0.0000
 150 N_a :2py   -0.0057   0.1082   0.0518  -0.0278   0.0319   0.0718   0.0000
 151 N_a :2pz   -0.0000   0.0000  -0.0000   0.0000  -0.0000   0.0000   0.0187
 152 N_a :2px    0.0085   0.0350  -0.0527   0.0441   0.0402   0.0147  -0.0000
 153 N_a :2py   -0.0051   0.0120  -0.0302  -0.0548  -0.0245  -0.0105  -0.0000
 154 N_a :2pz    0.0000  -0.0000   0.0000  -0.0000   0.0000  -0.0000  -0.1213
 155 N_a :2px    0.0006   0.0116  -0.0125   0.0047   0.0071  -0.0143   0.0000
 157 N_a :2pz    0.0000  -0.0000   0.0000  -0.0000   0.0000  -0.0000  -0.0136
 166 N_a :3d2-   0.0000  -0.0029  -0.0013  -0.0015  -0.0159  -0.0054  -0.0000
 169 N_a :3d1+   0.0000  -0.0000  -0.0000   0.0000   0.0000  -0.0000  -0.0198
 170 N_a :3d2+   0.0000  -0.0151  -0.0049  -0.0033   0.0063  -0.0143   0.0000
 171 N_a :3d2-  -0.0000  -0.0014   0.0052  -0.0016  -0.0264  -0.0014   0.0000
 174 N_a :3d1+  -0.0000   0.0000   0.0000   0.0000  -0.0000   0.0000  -0.0366
 175 N_a :3d2+  -0.0004  -0.0149  -0.0156  -0.0036   0.0032  -0.0193   0.0000
 176 N_a :3d2-   0.0034   0.0167   0.0215  -0.0000   0.0583   0.0425   0.0000
 177 N_a :3d1-   0.0000   0.0000  -0.0000   0.0000  -0.0000   0.0000   0.0200
 178 N_a :3d0   -0.0004  -0.0101  -0.0055   0.0067  -0.0072   0.0006   0.0000
 179 N_a :3d1+  -0.0000   0.0000  -0.0000   0.0000  -0.0000   0.0000   0.0358
 180 N_a :3d2+   0.0024   0.0176   0.0040  -0.0199  -0.0233  -0.0087  -0.0000
 181 N_a :3d2-   0.0089  -0.0046   0.0066  -0.0086   0.0316  -0.0250   0.0000
 182 N_a :3d1-   0.0000  -0.0000   0.0000  -0.0000   0.0000  -0.0000  -0.0272
 183 N_a :3d0   -0.0018  -0.0126   0.0053  -0.0067  -0.0072  -0.0011   0.0000
 185 N_a :3d2+  -0.0036   0.0645   0.0242  -0.0030   0.0081   0.0378   0.0000
 186 N_a :3d2-  -0.0004   0.0230  -0.0143  -0.0049   0.0139  -0.0285  -0.0000
 188 N_a :3d0   -0.0020  -0.0157   0.0126  -0.0097  -0.0126   0.0114   0.0000
 189 N_a :3d1+   0.0000  -0.0000   0.0000  -0.0000   0.0000  -0.0000  -0.0176
 190 N_a :3d2+  -0.0005   0.0044   0.0063  -0.0101  -0.0105   0.0170   0.0000
 210 N_a :4f3-  -0.0008  -0.0027   0.0037   0.0018   0.0295   0.0015   0.0000
 215 N_a :4f2+   0.0000   0.0000   0.0000   0.0000  -0.0000   0.0000   0.0167
 231 O_a :1s     0.0002   0.0133  -0.0011   0.0055   0.0000   0.0024   0.0000
 232 O_a :1s     0.0006  -0.7044  -0.3052   0.5363  -0.0468   0.1466  -0.0000
 234 O_a :1s    -0.0017   0.0034  -0.0568   0.1332  -0.0075   0.0596   0.0000
 237 O_a :1s     0.0030  -0.0941  -0.0249  -0.0461   0.0024  -0.1379   0.0000
 238 O_a :1s    -0.0160   0.0479   0.0235  -0.0015   0.0373  -0.0403  -0.0000
 239 O_a :1s    -0.0067   0.0455   0.0059   0.0206   0.0400  -0.0362  -0.0000
 240 O_a :1s    -0.0012  -0.0184   0.0440  -0.0055   0.0000   0.0163   0.0000
 241 O_a :2px    0.0000   0.2463  -0.0873   0.4501  -0.0589   0.5869  -0.0000
 242 O_a :2py    0.0000   0.0345  -0.0711   0.0084  -0.7358  -0.1049   0.0000
 243 O_a :2pz   -0.0000  -0.0000   0.0000   0.0000  -0.0000  -0.0000  -0.6861
 244 O_a :2px   -0.0002   0.0048   0.0067  -0.0153  -0.0012  -0.0054   0.0000
 247 O_a :2px   -0.0008  -0.0339   0.0264  -0.0655  -0.0023  -0.0200  -0.0000
 248 O_a :2py   -0.0028  -0.0141  -0.0136  -0.0075  -0.0497  -0.0383  -0.0000
 249 O_a :2pz    0.0000  -0.0000  -0.0000  -0.0000   0.0000  -0.0000  -0.0379
 256 O_a :2px    0.0058  -0.1459  -0.0089   0.0001  -0.0724  -0.0080  -0.0000
 257 O_a :2py    0.0065  -0.0644  -0.0331   0.0085  -0.0500  -0.0414   0.0000
 259 O_a :2px   -0.0095  -0.0472   0.0469  -0.0118  -0.0445   0.0471  -0.0000
 260 O_a :2py    0.0040  -0.0544   0.0726   0.0254  -0.0249   0.0613   0.0000
 261 O_a :2pz   -0.0000   0.0000  -0.0000   0.0000  -0.0000   0.0000   0.0914
 262 O_a :2px   -0.0005  -0.0096  -0.0000  -0.0036  -0.0045   0.0156  -0.0000
 263 O_a :2py    0.0022   0.0146  -0.0064   0.0025   0.0068  -0.0037  -0.0000
 273 O_a :3d2-   0.0000  -0.0029   0.0017  -0.0010   0.0110  -0.0009   0.0000
 276 O_a :3d1+   0.0000  -0.0000   0.0000  -0.0000   0.0000  -0.0000   0.0127
 277 O_a :3d2+  -0.0000  -0.0094   0.0004  -0.0073   0.0000  -0.0100   0.0000
 278 O_a :3d2-   0.0001  -0.0076   0.0064  -0.0016   0.0318   0.0011   0.0000
 280 O_a :3d0    0.0000   0.0152   0.0003   0.0069  -0.0045   0.0131  -0.0000
 281 O_a :3d1+  -0.0000   0.0000  -0.0000   0.0000  -0.0000   0.0000   0.0367
 282 O_a :3d2+   0.0002  -0.0263  -0.0011  -0.0151  -0.0001  -0.0248  -0.0000
 283 O_a :3d2-   0.0018   0.0067   0.0102   0.0003   0.0311   0.0153  -0.0000
 286 O_a :3d1+  -0.0000   0.0000  -0.0000   0.0000  -0.0000   0.0000   0.0312
 287 O_a :3d2+   0.0006   0.0032  -0.0006  -0.0010   0.0001  -0.0101  -0.0000
 288 O_a :3d2-  -0.0025   0.0255  -0.0040   0.0005  -0.0107   0.0066   0.0000
 290 O_a :3d0    0.0022  -0.0239   0.0010  -0.0032  -0.0125  -0.0045  -0.0000
 291 O_a :3d1+  -0.0000   0.0000  -0.0000   0.0000  -0.0000   0.0000  -0.0138
 292 O_a :3d2+   0.0022   0.0232  -0.0018   0.0071   0.0266  -0.0043  -0.0000
 293 O_a :3d2-   0.0016  -0.0060  -0.0179  -0.0036  -0.0038  -0.0135   0.0000
 295 O_a :3d0   -0.0003   0.0040   0.0043   0.0102  -0.0048   0.0127  -0.0000
 297 O_a :3d2+   0.0032  -0.0085   0.0002   0.0027   0.0154  -0.0221   0.0000

    Orbital        14       15       16       17       18       19       20
   3 Cl_a:1s    -0.0000   0.0167   0.0175   0.0059  -0.0010  -0.0000   0.0051
   5 Cl_a:1s     0.0000  -0.0126   0.0301  -0.0018   0.0156  -0.0000  -0.0011
   8 Cl_a:1s     0.0000   0.0091  -0.1396  -0.1422  -0.0002  -0.0000  -0.1809
   9 Cl_a:1s     0.0000  -0.0691   0.0116  -0.0410   0.9612   0.0000  -0.2284
  10 Cl_a:1s    -0.0000  -0.0318  -0.0032   0.8469  -5.3516  -0.0000  -0.9480
  11 Cl_a:1s     0.0000   0.0029   0.0216  -1.0445 -12.5506  -0.0000  -7.3050
  15 Cl_a:2px    0.0000  -0.9455  -0.0409   0.0006  -0.0014  -0.0000   0.0018
  16 Cl_a:2py   -0.0000   0.1406  -0.7321  -0.0061  -0.0008   0.0000  -0.0011
  17 Cl_a:2pz    0.9473   0.0000  -0.0000   0.0000  -0.0000  -0.0018   0.0000
  21 Cl_a:2px   -0.0000  -0.0512   0.0281  -0.0102   0.0025   0.0000  -0.0065
  22 Cl_a:2py    0.0000  -0.0075  -0.0144  -0.0177   0.0034   0.0000  -0.0141
  23 Cl_a:2pz    0.0447  -0.0000   0.0000  -0.0000  -0.0000  -0.0001  -0.0000
  30 Cl_a:2px    0.0000  -0.3189  -0.0166  -0.2646   0.1180  -0.0000  -0.1042
  31 Cl_a:2py   -0.0000   0.0127  -0.0374  -0.0158  -0.1331   0.0000  -0.0153
  32 Cl_a:2pz    0.2386   0.0000  -0.0000   0.0000   0.0000  -0.0313   0.0000
  33 Cl_a:2px    0.0000  -0.0689  -0.0347  -0.6884   0.4668  -0.0000  -0.7951
  34 Cl_a:2py   -0.0000  -0.0319  -0.0159  -0.4995  -1.4459  -0.0000  -0.1820
  35 Cl_a:2pz    0.0254   0.0000   0.0000   0.0000   0.0000   0.3862   0.0000
  36 Cl_a:2px    0.0000  -0.0116  -0.0100  -0.0823   1.6272   0.0000   0.1353
  37 Cl_a:2py    0.0000  -0.0182  -0.0022  -0.2972  -1.4934  -0.0000   0.0685
  38 Cl_a:2pz   -0.0122  -0.0000  -0.0000  -0.0000  -0.0000   1.0626  -0.0000
  39 Cl_a:2px   -0.0000   0.0031   0.0020   0.3443  -5.4357   0.0000  -1.6281
  40 Cl_a:2py    0.0000  -0.0002   0.0011   1.2102  -0.5282  -0.0000  -2.0588
  41 Cl_a:2pz   -0.0007  -0.0000  -0.0000  -0.0000  -0.0000  -2.2573  -0.0000
  56 Cl_a:3d2+   0.0000   0.0011   0.0103  -0.0005  -0.0001   0.0000  -0.0001
  57 Cl_a:3d2-   0.0000  -0.0078  -0.0145  -0.0003   0.0002  -0.0000  -0.0002
  61 Cl_a:3d2+   0.0000   0.0016   0.0164  -0.0005  -0.0001   0.0000   0.0002
  62 Cl_a:3d2-   0.0000  -0.0121   0.0128  -0.0027  -0.0008  -0.0000  -0.0035
  63 Cl_a:3d1-   0.0138   0.0000  -0.0000  -0.0000  -0.0000   0.0007  -0.0000
  66 Cl_a:3d2+   0.0000  -0.0005   0.0156   0.0048  -0.0012   0.0000   0.0043
  67 Cl_a:3d2-   0.0000  -0.0975  -0.0056  -0.0580   0.0230  -0.0000  -0.0083
  68 Cl_a:3d1-   0.0806   0.0000  -0.0000   0.0000   0.0000  -0.0095  -0.0000
  69 Cl_a:3d0    0.0000   0.0149  -0.0075  -0.0038   0.0088  -0.0000  -0.0105
  70 Cl_a:3d1+   0.0304   0.0000   0.0000   0.0000   0.0000   0.0022   0.0000
  71 Cl_a:3d2+   0.0000  -0.0445   0.0048  -0.0354   0.0463  -0.0000  -0.0251
  72 Cl_a:3d2-   0.0000  -0.0173  -0.0162  -0.0599  -0.0225  -0.0000  -0.0607
  73 Cl_a:3d1-   0.0125   0.0000   0.0000   0.0000   0.0000   0.0217   0.0000
  74 Cl_a:3d0   -0.0000   0.0129   0.0069   0.0346   0.1128   0.0000   0.0036
  76 Cl_a:3d2+   0.0000  -0.0210   0.0131   0.0269   0.1838   0.0000   0.0440
  77 Cl_a:3d2-   0.0000  -0.0045  -0.0041  -0.0846   0.1041  -0.0000  -0.1500
  78 Cl_a:3d1-  -0.0034   0.0000   0.0000   0.0000   0.0000   0.1369   0.0000
  79 Cl_a:3d0   -0.0000   0.0028   0.0027   0.0478   0.0381   0.0000  -0.0561
  80 Cl_a:3d1+  -0.0034   0.0000   0.0000   0.0000   0.0000  -0.0692   0.0000
  81 Cl_a:3d2+  -0.0000   0.0006   0.0008   0.1017   0.1523   0.0000   0.0208
 110 Cl_a:4f3-   0.0000  -0.0116  -0.0002  -0.0087   0.0094  -0.0000  -0.0057
 113 Cl_a:4f0   -0.0108  -0.0000  -0.0000  -0.0000  -0.0000   0.0000  -0.0000
 116 Cl_a:4f3+  -0.0000   0.0115   0.0014   0.0073  -0.0032   0.0000  -0.0026
 117 Cl_a:4f3-   0.0000  -0.0042   0.0028   0.0047   0.0142   0.0000   0.0079
 119 Cl_a:4f1-  -0.0000   0.0008   0.0041   0.0025   0.0170  -0.0000   0.0022
 124 N_a :1s     0.0000  -0.0001   0.0103  -0.0002   0.0003   0.0000  -0.0006
 125 N_a :1s     0.0000  -0.0064   0.2635   0.0059   0.0034  -0.0000  -0.0015
 127 N_a :1s    -0.0000  -0.0134   0.0851  -0.0085   0.0155   0.0000  -0.0157
 130 N_a :1s    -0.0000   0.1120   0.2560   0.0274   0.2209   0.0000  -0.0714
 131 N_a :1s     0.0000  -0.0805  -0.0023  -0.6548   1.1194  -0.0000  -0.6539
 132 N_a :1s     0.0000  -0.0460  -0.0153  -4.0791   8.1870   0.0000  -1.6020
 133 N_a :1s     0.0000  -0.0037   0.0188  -9.5283 -16.4026  -0.0000 -16.5954
 134 N_a :2px    0.0000   0.0302  -0.2313  -0.0065  -0.0016   0.0000  -0.0021
 135 N_a :2py    0.0000   0.0118   0.3425  -0.0021   0.0002  -0.0000   0.0016
 137 N_a :2px    0.0000  -0.0032   0.0142  -0.0007   0.0004  -0.0000  -0.0013
 140 N_a :2px   -0.0000  -0.0134   0.0094  -0.0190  -0.0049   0.0000  -0.0178
 141 N_a :2py   -0.0000   0.0006   0.0994  -0.0134   0.0010   0.0000  -0.0185
 142 N_a :2pz    0.0212  -0.0000   0.0000   0.0000   0.0000  -0.0037   0.0000
 149 N_a :2px   -0.0000   0.2915  -0.0672   0.0401  -0.1953   0.0000  -0.0837
 150 N_a :2py    0.0000  -0.0185  -0.0160  -0.1527   0.0559  -0.0000  -0.2191
 151 N_a :2pz   -0.1624  -0.0000  -0.0000  -0.0000  -0.0000  -0.0149  -0.0000
 152 N_a :2px   -0.0000  -0.0281   0.0456   0.6653  -1.3690   0.0000   0.8027
 153 N_a :2py   -0.0000   0.0907   0.0226   0.8641  -0.7125   0.0000  -0.1346
 154 N_a :2pz    0.0903   0.0000  -0.0000  -0.0000  -0.0000  -0.4862  -0.0000
 155 N_a :2px    0.0000  -0.0124   0.0169  -1.2017  -3.2558  -0.0000  -3.1127
 156 N_a :2py    0.0000   0.0229   0.0168  -2.0227  -0.7303  -0.0000  -1.0890
 157 N_a :2pz    0.0340   0.0000   0.0000   0.0000   0.0000   0.8436   0.0000
 158 N_a :2px    0.0000  -0.0032  -0.0020   0.8589   8.7813   0.0000   1.1565
 159 N_a :2py    0.0000  -0.0019  -0.0017  -2.2395   6.1261  -0.0000   7.0425
 160 N_a :2pz    0.0015   0.0000   0.0000   0.0000   0.0000   5.1975   0.0000
 171 N_a :3d2-   0.0000   0.0018  -0.0274   0.0001   0.0002   0.0000  -0.0007
 172 N_a :3d1-  -0.0150   0.0000   0.0000   0.0000   0.0000   0.0001   0.0000
 173 N_a :3d0   -0.0000   0.0002   0.0156   0.0003   0.0001  -0.0000   0.0003
 174 N_a :3d1+  -0.0123  -0.0000  -0.0000  -0.0000  -0.0000  -0.0004  -0.0000
 175 N_a :3d2+   0.0000   0.0157   0.0218  -0.0007  -0.0004  -0.0000  -0.0005
 176 N_a :3d2-  -0.0000   0.0105   0.0274  -0.0001  -0.0026   0.0000  -0.0037
 178 N_a :3d0    0.0000   0.0007   0.0102  -0.0016   0.0034  -0.0000  -0.0007
 180 N_a :3d2+  -0.0000   0.0026   0.0265  -0.0096  -0.0011   0.0000  -0.0078
 181 N_a :3d2-   0.0000  -0.1046   0.0160  -0.0838   0.0565  -0.0000  -0.0467
 182 N_a :3d1-   0.0632   0.0000   0.0000   0.0000   0.0000  -0.0155   0.0000
 183 N_a :3d0    0.0000   0.0129   0.0014  -0.0029   0.0191   0.0000  -0.0085
 184 N_a :3d1+   0.0123   0.0000  -0.0000  -0.0000  -0.0000  -0.0106  -0.0000
 185 N_a :3d2+   0.0000   0.0093  -0.0594  -0.0914   0.0075  -0.0000  -0.0854
 186 N_a :3d2-  -0.0000   0.0067  -0.0120  -0.0459  -0.3785   0.0000  -0.1735
 187 N_a :3d1-   0.0010   0.0000   0.0000   0.0000   0.0000   0.0830   0.0000
 188 N_a :3d0    0.0000   0.0145  -0.0019  -0.0185   0.2848   0.0000  -0.0090
 189 N_a :3d1+   0.0318   0.0000   0.0000   0.0000   0.0000   0.0502   0.0000
 190 N_a :3d2+  -0.0000   0.0060  -0.0002   0.0927   0.1709   0.0000  -0.0513
 191 N_a :3d2-   0.0000  -0.0024  -0.0008  -0.3076   0.3782  -0.0000   0.1793
 192 N_a :3d1-  -0.0036  -0.0000  -0.0000  -0.0000  -0.0000   0.1705  -0.0000
 193 N_a :3d0   -0.0000   0.0057  -0.0006   0.0023  -0.0395   0.0000   0.1121
 194 N_a :3d1+   0.0038   0.0000  -0.0000   0.0000   0.0000   0.4136   0.0000
 195 N_a :3d2+   0.0000   0.0024   0.0012  -0.0970  -0.0449  -0.0000  -0.4741
 217 N_a :4f3-  -0.0000   0.0077   0.0106   0.0155   0.0016   0.0000   0.0045
 218 N_a :4f2-  -0.0110  -0.0000   0.0000   0.0000   0.0000   0.0052   0.0000
 220 N_a :4f0    0.0142   0.0000  -0.0000  -0.0000  -0.0000  -0.0027  -0.0000
 222 N_a :4f2+   0.0102   0.0000   0.0000   0.0000   0.0000  -0.0019   0.0000
 223 N_a :4f3+   0.0000  -0.0139   0.0008  -0.0227  -0.0002   0.0000  -0.0113
 224 N_a :4f3-  -0.0000  -0.0024   0.0014   0.0331  -0.1069  -0.0000   0.0558
 225 N_a :4f2-  -0.0066   0.0000   0.0000   0.0000   0.0000  -0.0288   0.0000
 226 N_a :4f1-   0.0000  -0.0016   0.0027  -0.0301  -0.0240  -0.0000  -0.0336
 228 N_a :4f1+   0.0000   0.0018  -0.0005  -0.0481   0.0212  -0.0000  -0.0224
 230 N_a :4f3+   0.0000  -0.0020   0.0022  -0.0505  -0.0391  -0.0000  -0.0298
 232 O_a :1s    -0.0000   0.0283  -0.0267   0.0061   0.0012  -0.0000   0.0016
 234 O_a :1s     0.0000   0.0033  -0.0254   0.0220   0.0065  -0.0000   0.0203
 237 O_a :1s     0.0000  -0.0684  -0.0615   0.1164   0.0271  -0.0000   0.1569
 238 O_a :1s    -0.0000   0.1801  -0.0059   0.7835   0.0521   0.0000   0.8016
 239 O_a :1s     0.0000   0.0688   0.0070   3.1550  -1.8767  -0.0000   3.3461
 240 O_a :1s    -0.0000  -0.0010  -0.0355  10.0103  26.0993   0.0000  23.2987
 241 O_a :2px   -0.0000  -0.0247   0.1302   0.0048   0.0009  -0.0000   0.0022
 242 O_a :2py    0.0000  -0.1727  -0.4945   0.0046   0.0003  -0.0000  -0.0005
 243 O_a :2pz   -0.1688  -0.0000   0.0000  -0.0000  -0.0000  -0.0007  -0.0000
 247 O_a :2px   -0.0000   0.0007   0.0187  -0.0092   0.0012   0.0000  -0.0126
 248 O_a :2py   -0.0000  -0.0143  -0.0753  -0.0002   0.0009  -0.0000   0.0022
 249 O_a :2pz   -0.0189   0.0000  -0.0000   0.0000   0.0000   0.0018  -0.0000
 256 O_a :2px    0.0000  -0.0434   0.0991   0.0163   0.0906  -0.0000   0.0109
 257 O_a :2py   -0.0000  -0.0470  -0.0668   0.0175  -0.0322  -0.0000   0.0768
 258 O_a :2pz   -0.0286   0.0000   0.0000   0.0000   0.0000   0.0213   0.0000
 259 O_a :2px   -0.0000   0.0810  -0.0117  -0.4487   0.9413   0.0000  -0.5547
 260 O_a :2py    0.0000  -0.1011  -0.0046  -0.5914   1.7019  -0.0000  -0.0464
 261 O_a :2pz   -0.1452  -0.0000   0.0000  -0.0000  -0.0000   0.1389  -0.0000
 262 O_a :2px   -0.0000   0.0221  -0.0053   0.5158   0.6110   0.0000   1.4032
 263 O_a :2py   -0.0000  -0.0114  -0.0127   2.0557  -0.1994   0.0000   0.0615
 264 O_a :2pz   -0.0296  -0.0000   0.0000  -0.0000  -0.0000  -1.5993  -0.0000
 265 O_a :2px    0.0000   0.0017   0.0018  -1.9097  -4.8614  -0.0000  -1.4577
 266 O_a :2py   -0.0000   0.0023   0.0015   0.6998  -6.5695   0.0000  -5.2995
 267 O_a :2pz   -0.0020   0.0000  -0.0000  -0.0000  -0.0000  -2.4042  -0.0000
 283 O_a :3d2-  -0.0000  -0.0035   0.0125  -0.0002   0.0005   0.0000  -0.0023
 288 O_a :3d2-  -0.0000   0.0178   0.0026   0.0026  -0.0031   0.0000  -0.0141
 289 O_a :3d1-   0.0226  -0.0000  -0.0000  -0.0000  -0.0000   0.0024  -0.0000
 290 O_a :3d0    0.0000  -0.0225   0.0069   0.0072   0.0146  -0.0000   0.0104
 291 O_a :3d1+   0.0127  -0.0000  -0.0000  -0.0000  -0.0000  -0.0048   0.0000
 292 O_a :3d2+  -0.0000  -0.0183  -0.0101   0.0005  -0.0192   0.0000   0.0027
 293 O_a :3d2-   0.0000  -0.0218   0.0123   0.0035  -0.1193  -0.0000   0.0281
 294 O_a :3d1-   0.0267   0.0000  -0.0000   0.0000   0.0000  -0.0093  -0.0000
 295 O_a :3d0   -0.0000  -0.0027   0.0023   0.0207   0.0486   0.0000  -0.0018
 296 O_a :3d1+   0.0260   0.0000  -0.0000  -0.0000  -0.0000  -0.0343  -0.0000
 297 O_a :3d2+   0.0000  -0.0417  -0.0012  -0.0139   0.0112  -0.0000   0.0395
 298 O_a :3d2-   0.0000  -0.0015   0.0023  -0.0819  -0.0148  -0.0000  -0.1048
 299 O_a :3d1-   0.0068   0.0000   0.0000   0.0000   0.0000  -0.0224   0.0000
 300 O_a :3d0   -0.0000  -0.0019   0.0003   0.1538   0.0334   0.0000   0.0636
 301 O_a :3d1+   0.0037   0.0000  -0.0000  -0.0000  -0.0000  -0.0459  -0.0000
 302 O_a :3d2+   0.0000  -0.0077  -0.0011   0.0546   0.0683  -0.0000   0.1138
 330 O_a :4f3+  -0.0000   0.0108   0.0022  -0.0007   0.0019   0.0000  -0.0019
 331 O_a :4f3-  -0.0000   0.0123  -0.0041   0.0156  -0.0015   0.0000  -0.0104
 332 O_a :4f2-  -0.0030  -0.0000  -0.0000  -0.0000  -0.0000   0.0120  -0.0000
 337 O_a :4f3+  -0.0000   0.0016   0.0012   0.0150  -0.0152   0.0000   0.0085

    Orbital        21       22       23       24       25       26
   3 Cl_a:1s     0.0045  -0.0000   0.0016   0.0036  -0.0000  -0.0110
   5 Cl_a:1s    -0.0083   0.0000  -0.0142  -0.0069   0.0000   0.0278
   8 Cl_a:1s     0.0105  -0.0000  -0.2321  -0.2172  -0.0000   0.0411
   9 Cl_a:1s    -0.7901  -0.0000   0.7025  -0.2179  -0.0000   1.5116
  10 Cl_a:1s     2.0981   0.0000  -5.6881   4.3160   0.0000 -10.8801
  11 Cl_a:1s    13.7907   0.0000  -3.4620   4.3322   0.0000 -22.2452
  21 Cl_a:2px   -0.0059   0.0000  -0.0014  -0.0124   0.0000   0.0127
  22 Cl_a:2py   -0.0061   0.0000  -0.0276  -0.0313   0.0000   0.0092
  30 Cl_a:2px    0.1536  -0.0000  -0.0485  -0.1077  -0.0000   0.5553
  31 Cl_a:2py   -0.0599   0.0000  -0.0472  -0.1336   0.0000  -0.3145
  32 Cl_a:2pz    0.0000   0.1166   0.0000  -0.0000  -0.4330  -0.0000
  33 Cl_a:2px    1.2112  -0.0000  -1.2362   0.5760  -0.0000   2.0716
  34 Cl_a:2py    0.4172   0.0000  -2.0105  -0.9483   0.0000  -2.5387
  35 Cl_a:2pz    0.0000   2.3743  -0.0000  -0.0000  -1.9967  -0.0000
  36 Cl_a:2px    1.0281  -0.0000  -3.1889   0.9376  -0.0000   3.1535
  37 Cl_a:2py   -1.6207   0.0000  -3.8443  -0.4237   0.0000  -2.7683
  38 Cl_a:2pz   -0.0000   4.1338   0.0000   0.0000  -2.3078   0.0000
  39 Cl_a:2px   -2.1187   0.0000   1.1778  -0.5749   0.0000 -10.2547
  40 Cl_a:2py    2.3368  -0.0000   4.3092   3.9641  -0.0000  -0.3441
  41 Cl_a:2pz   -0.0000  -4.7869   0.0000   0.0000   5.3216   0.0000
  67 Cl_a:3d2-   0.0272   0.0000  -0.0058  -0.0281  -0.0000   0.1205
  68 Cl_a:3d1-   0.0000   0.0313   0.0000  -0.0000  -0.1253  -0.0000
  69 Cl_a:3d0    0.0138   0.0000  -0.0067  -0.0003   0.0000   0.0201
  70 Cl_a:3d1+   0.0000   0.0167  -0.0000  -0.0000  -0.0474  -0.0000
  71 Cl_a:3d2+   0.0270  -0.0000  -0.0229   0.0162  -0.0000   0.1411
  72 Cl_a:3d2-   0.0655  -0.0000  -0.1684   0.0696  -0.0000   0.0724
  73 Cl_a:3d1-   0.0000   0.1741  -0.0000  -0.0000  -0.2236  -0.0000
  74 Cl_a:3d0   -0.0463  -0.0000   0.1271   0.0541   0.0000   0.1984
  75 Cl_a:3d1+   0.0000  -0.0261  -0.0000  -0.0000  -0.0311  -0.0000
  76 Cl_a:3d2+  -0.0892  -0.0000   0.1722   0.0701  -0.0000   0.3329
  77 Cl_a:3d2-   0.1618  -0.0000  -0.3461   0.1446  -0.0000   0.3830
  78 Cl_a:3d1-   0.0000   0.4370  -0.0000  -0.0000  -0.3675  -0.0000
  79 Cl_a:3d0    0.1705  -0.0000   0.2912   0.1253  -0.0000   0.0424
  80 Cl_a:3d1+   0.0000   0.1523  -0.0000  -0.0000   0.1200  -0.0000
  81 Cl_a:3d2+  -0.0299  -0.0000   0.1408   0.2763  -0.0000   0.2578
 110 Cl_a:4f3-   0.0091  -0.0000  -0.0072   0.0014  -0.0000   0.0304
 111 Cl_a:4f2-   0.0000   0.0094  -0.0000  -0.0000  -0.0132  -0.0000
 113 Cl_a:4f0   -0.0000  -0.0070   0.0000   0.0000   0.0166   0.0000
 115 Cl_a:4f2+   0.0000  -0.0034  -0.0000   0.0000   0.0129   0.0000
 116 Cl_a:4f3+  -0.0004  -0.0000   0.0010   0.0085   0.0000  -0.0147
 117 Cl_a:4f3-  -0.0242  -0.0000   0.0144   0.0133  -0.0000   0.0238
 118 Cl_a:4f2-   0.0000  -0.0116  -0.0000  -0.0000  -0.0082  -0.0000
 119 Cl_a:4f1-  -0.0026   0.0000   0.0172   0.0025   0.0000   0.0313
 120 Cl_a:4f0   -0.0000  -0.0036   0.0000   0.0000   0.0137   0.0000
 122 Cl_a:4f2+   0.0000  -0.0178  -0.0000  -0.0000   0.0190  -0.0000
 123 Cl_a:4f3+  -0.0088  -0.0000   0.0222  -0.0167  -0.0000   0.0118
 125 N_a :1s     0.0056  -0.0000  -0.0073  -0.0155  -0.0000  -0.0013
 127 N_a :1s    -0.0303   0.0000   0.0314  -0.0430   0.0000   0.0235
 130 N_a :1s    -0.1940  -0.0000   0.4728  -0.0874   0.0000   0.3189
 131 N_a :1s    -0.5528  -0.0000   2.3748  -1.5728  -0.0000   2.5455
 132 N_a :1s    -7.8271  -0.0000   7.0261 -10.7139  -0.0000  16.9136
 133 N_a :1s    12.5496   0.0000   5.6614  -4.1720   0.0000 -22.1192
 140 N_a :2px   -0.0168   0.0000   0.0138  -0.0332   0.0000  -0.0030
 141 N_a :2py    0.0052  -0.0000   0.0066  -0.0199   0.0000  -0.0000
 142 N_a :2pz    0.0000  -0.0159  -0.0000   0.0000   0.0013  -0.0000
 149 N_a :2px   -0.1128  -0.0000   0.0456  -0.1115   0.0000  -0.5294
 150 N_a :2py    0.1719  -0.0000  -0.0381  -0.0225  -0.0000   0.1977
 151 N_a :2pz   -0.0000  -0.2912   0.0000   0.0000   0.3900   0.0000
 152 N_a :2px   -1.2864   0.0000   1.1905   0.4122   0.0000  -3.5435
 153 N_a :2py    1.3947  -0.0000   0.5828   2.4187  -0.0000  -1.8261
 154 N_a :2pz   -0.0000  -3.4373   0.0000   0.0000   0.7858   0.0000
 155 N_a :2px    5.3651   0.0000   3.8989   2.3206  -0.0000  -3.0377
 156 N_a :2py    7.5424   0.0000   4.2361  -5.3478   0.0000  -0.4198
 157 N_a :2pz    0.0000  -2.4997  -0.0000  -0.0000  -5.6365  -0.0000
 158 N_a :2px   -6.1494  -0.0000   1.6244   0.6934  -0.0000  11.6311
 159 N_a :2py    1.3617  -0.0000   3.1119  -7.7271  -0.0000   8.8286
 160 N_a :2pz    0.0000  -4.6653  -0.0000  -0.0000  -8.1828  -0.0000
 176 N_a :3d2-   0.0028  -0.0000   0.0138   0.0043  -0.0000  -0.0063
 180 N_a :3d2+  -0.0074   0.0000   0.0025  -0.0169   0.0000   0.0037
 181 N_a :3d2-   0.0997  -0.0000   0.0223   0.0406  -0.0000   0.2103
 182 N_a :3d1-   0.0000   0.0682  -0.0000  -0.0000  -0.1684  -0.0000
 183 N_a :3d0    0.0200  -0.0000   0.0046   0.0108  -0.0000   0.0537
 184 N_a :3d1+  -0.0000  -0.0909   0.0000   0.0000   0.0002   0.0000
 185 N_a :3d2+   0.0304  -0.0000  -0.0018  -0.0682  -0.0000   0.1022
 186 N_a :3d2-   0.8038   0.0000  -0.5502   0.5484   0.0000  -0.5159
 187 N_a :3d1-   0.0000   0.6637  -0.0000  -0.0000  -0.5227  -0.0000
 188 N_a :3d0    0.0079  -0.0000   0.3184  -0.1060  -0.0000   0.5837
 189 N_a :3d1+   0.0000  -0.2892  -0.0000  -0.0000  -0.3503  -0.0000
 190 N_a :3d2+  -0.1124  -0.0000   0.5333   0.4556  -0.0000   0.3627
 191 N_a :3d2-   0.6209   0.0000  -0.2699  -0.8520   0.0000   0.6802
 192 N_a :3d1-  -0.0000   0.7050   0.0000   0.0000  -0.3607   0.0000
 193 N_a :3d0   -0.0061  -0.0000   0.2431  -0.2576   0.0000  -0.1116
 194 N_a :3d1+   0.0000   0.1174   0.0000  -0.0000  -1.1977  -0.0000
 195 N_a :3d2+   1.2662   0.0000   0.5950   0.5354  -0.0000   0.2732
 217 N_a :4f3-  -0.0062  -0.0000   0.0046   0.0296  -0.0000  -0.0181
 218 N_a :4f2-   0.0000   0.0100  -0.0000  -0.0000  -0.0011  -0.0000
 219 N_a :4f1-   0.0022   0.0000   0.0148  -0.0088   0.0000  -0.0056
 220 N_a :4f0   -0.0000   0.0152   0.0000  -0.0000  -0.0245   0.0000
 221 N_a :4f1+   0.0155   0.0000   0.0103   0.0011   0.0000   0.0209
 222 N_a :4f2+   0.0000  -0.0211  -0.0000  -0.0000  -0.0149  -0.0000
 223 N_a :4f3+   0.0151  -0.0000   0.0272  -0.0122  -0.0000   0.0269
 224 N_a :4f3-   0.0197   0.0000  -0.0729   0.0167   0.0000  -0.2661
 225 N_a :4f2-   0.0000  -0.0428  -0.0000  -0.0000   0.0859  -0.0000
 226 N_a :4f1-   0.0516   0.0000  -0.0222  -0.0290   0.0000  -0.0116
 227 N_a :4f0   -0.0000   0.1198   0.0000   0.0000  -0.0128   0.0000
 228 N_a :4f1+   0.0881   0.0000   0.0011  -0.0739   0.0000   0.0897
 229 N_a :4f2+  -0.0000   0.0035   0.0000  -0.0000  -0.0543  -0.0000
 230 N_a :4f3+   0.0785   0.0000  -0.0096  -0.0353  -0.0000  -0.0208
 234 O_a :1s     0.0180  -0.0000  -0.0225   0.0277  -0.0000   0.0045
 237 O_a :1s     0.1210   0.0000  -0.2168   0.2156  -0.0000   0.0539
 238 O_a :1s     0.3609   0.0000  -0.6706   1.0430   0.0000  -0.3356
 239 O_a :1s     3.0988   0.0000   0.1706   4.6744   0.0000  -4.7713
 240 O_a :1s   -22.9546  -0.0000  -5.4188   1.9479  -0.0000  39.9880
 247 O_a :2px   -0.0114   0.0000   0.0133  -0.0224   0.0000   0.0014
 256 O_a :2px   -0.0714   0.0000   0.1120  -0.0704   0.0000   0.1214
 257 O_a :2py   -0.1438   0.0000  -0.0410  -0.1262   0.0000  -0.0641
 258 O_a :2pz    0.0000   0.1863  -0.0000  -0.0000  -0.0620  -0.0000
 259 O_a :2px    0.0475  -0.0000  -0.0092  -1.4388   0.0000   1.8453
 260 O_a :2py   -1.6603  -0.0000   0.6048  -1.5753  -0.0000   3.4922
 261 O_a :2pz   -0.0000   1.2502  -0.0000   0.0000   0.9032   0.0000
 262 O_a :2px   -5.5826  -0.0000  -0.9260  -3.4307   0.0000  -1.5018
 263 O_a :2py   -3.7997  -0.0000  -1.8972   6.4209  -0.0000  -1.3059
 264 O_a :2pz   -0.0000  -1.7077  -0.0000   0.0000   7.1252   0.0000
 265 O_a :2px    9.9411   0.0000  -2.6906  -0.4905   0.0000  -5.6794
 266 O_a :2py   -2.9654   0.0000  -7.5805   5.4195   0.0000 -10.7833
 267 O_a :2pz   -0.0000   9.5603   0.0000   0.0000   4.5260   0.0000
 288 O_a :3d2-   0.0251  -0.0000   0.0163   0.0168  -0.0000  -0.0071
 289 O_a :3d1-  -0.0000  -0.0218   0.0000   0.0000   0.0154   0.0000
 290 O_a :3d0   -0.0215   0.0000  -0.0110  -0.0072   0.0000   0.0114
 291 O_a :3d1+  -0.0000  -0.0203  -0.0000   0.0000   0.0081   0.0000
 292 O_a :3d2+   0.0023   0.0000  -0.0454   0.0127   0.0000  -0.0320
 293 O_a :3d2-   0.0247   0.0000   0.0452  -0.0498  -0.0000  -0.2020
 294 O_a :3d1-  -0.0000  -0.1768   0.0000  -0.0000   0.0531  -0.0000
 295 O_a :3d0   -0.1163  -0.0000  -0.0576  -0.0483  -0.0000  -0.0036
 296 O_a :3d1+  -0.0000   0.1082   0.0000   0.0000  -0.0602   0.0000
 297 O_a :3d2+   0.0216   0.0000  -0.1296   0.0154   0.0000   0.0490
 298 O_a :3d2-  -0.0320  -0.0000   0.0368  -0.1042  -0.0000   0.1540
 299 O_a :3d1-   0.0000  -0.0370  -0.0000  -0.0000  -0.0235  -0.0000
 300 O_a :3d0   -0.3960  -0.0000  -0.1323   0.1698  -0.0000  -0.1656
 301 O_a :3d1+  -0.0000   0.2702   0.0000   0.0000  -0.0873   0.0000
 302 O_a :3d2+  -0.0722  -0.0000  -0.2092   0.1860  -0.0000   0.1238
 330 O_a :4f3+   0.0002  -0.0000   0.0132  -0.0034  -0.0000   0.0037
 331 O_a :4f3-   0.0087  -0.0000  -0.0113   0.0553   0.0000  -0.0121
 332 O_a :4f2-  -0.0000   0.0196   0.0000   0.0000  -0.0327   0.0000
 333 O_a :4f1-  -0.0225  -0.0000  -0.0041  -0.0086  -0.0000   0.0050
 334 O_a :4f0   -0.0000   0.0174   0.0000   0.0000   0.0001   0.0000
 335 O_a :4f1+   0.0166   0.0000  -0.0008   0.0049   0.0000   0.0253
 336 O_a :4f2+   0.0000  -0.0512  -0.0000  -0.0000   0.0152  -0.0000
 337 O_a :4f3+  -0.0316  -0.0000   0.0250   0.0132  -0.0000  -0.0435

  Total CPU  time used in SIRIUS :  1 minute  13 seconds
  Total wall time used in SIRIUS :  1 minute  14 seconds

 
     Date and time (Linux)  : Sat Jul 27 21:07:40 2024
     Host name              : dn006                                   

 NOTE:    1 warnings have been issued.
 Check output, result, and error files for "WARNING".


                     .---------------------------------------.
                     | End of Wave Function Section (SIRIUS) |
                     `---------------------------------------'



                 .------------------------------------------------.
                 | Starting in Dynamic Property Section (RESPONS) |
                 `------------------------------------------------'


 ----------------------------------------------------------------------------------------
  RESPONSE  -  an MCSCF, MC-srDFT, DFT, SOPPA and SOPPA-srDFT response property program
 ----------------------------------------------------------------------------------------


 -------- OUTPUT FROM RESPONSE INPUT PROCESSING --------




 Quadratic Response calculation
 ------------------------------

 First hyperpolarizability calculation : HYPCAL= T

 Spin of operator A , ISPINA=    0
 Spin of operator B , ISPINB=    0
 Spin of operator C , ISPINC=    0

  5 B-frequencies  0.000000D+00  6.344563D-03  1.268913D-02  1.903369D-02  2.537825D-02
  5 C-frequencies  0.000000D+00  6.344563D-03  1.268913D-02  1.903369D-02  2.537825D-02


 Print level                                    : IPRHYP =   2
 Maximum number of iterations in lin.rsp. solver: MAXITL =  60
 Threshold for convergence of linear resp. eq.s : THCLR  = 1.000D-03
 Maximum iterations in optimal orbital algorithm: MAXITO =   5
 Direct one-index transformation                : DIROIT = T

    3 A OPERATORS OF SYMMETRY NO:    1 AND LABELS:

          XDIPLEN 
          YDIPLEN 
          ZDIPLEN 

    3 B OPERATORS OF SYMMETRY NO:    1 AND LABELS:

          XDIPLEN 
          YDIPLEN 
          ZDIPLEN 

    3 C OPERATORS OF SYMMETRY NO:    1 AND LABELS:

          XDIPLEN 
          YDIPLEN 
          ZDIPLEN 


   SCF energy         :     -588.771005123902569
 -- inactive part     :     -673.919424908355609
 -- nuclear repulsion :       85.148419784453068


                     ***************************************
                     *** RHF response calculation (TDHF) ***
                     ***************************************



 Linear response calculations for quadratic response
 - singlet property operator of symmetry    1  ( A  )


 Perturbation symmetry.     KSYMOP:           1
 Perturbation spin symmetry.TRPLET:           F
 Orbital variables.         KZWOPT:        5120
 Configuration variables.   KZCONF:           0
 Total number of variables. KZVAR :        5120


 QRLRVE -- linear response calculation for symmetry  1  ( A  )
 QRLRVE -- operator label : XDIPLEN 
 QRLRVE -- operator spin  :   0
 QRLRVE -- frequencies :  0.000000  0.006345  0.012689  0.019034  0.025378
                          0.031723  0.038067  0.044412  0.050757



 ---  SOLVING SETS OF LINEAR EQUATIONS FOR LINEAR RESPONSE PROPERTIES ---

 Operator symmetry = 1  ( A  ); triplet =   F

RSPORT:    2 out of    9 new trial vectors linear dependent

 ** RSPCTL MICROITERATION NUMBER    1

       No.  Residual tot.,    conf., and orb.    Bnorm      Frequency 
      ----------------------------------------------------------------
         1    4.23478D+00  0.00D+00  4.23D+00  4.10D+00    0.00000D+00
         2    4.23553D+00  0.00D+00  4.24D+00  4.10D+00    6.34456D-03
         3    4.23776D+00  0.00D+00  4.24D+00  4.11D+00    1.26891D-02
         4    4.24150D+00  0.00D+00  4.24D+00  4.12D+00    1.90337D-02
         5    4.24675D+00  0.00D+00  4.25D+00  4.13D+00    2.53783D-02
         6    4.25354D+00  0.00D+00  4.25D+00  4.15D+00    3.17228D-02
         7    4.26190D+00  0.00D+00  4.26D+00  4.17D+00    3.80674D-02
         8    4.27185D+00  0.00D+00  4.27D+00  4.19D+00    4.44119D-02
         9    4.28345D+00  0.00D+00  4.28D+00  4.22D+00    5.07565D-02

 ** RSPCTL MICROITERATION NUMBER    2

       No.  Residual tot.,    conf., and orb.    Bnorm      Frequency 
      ----------------------------------------------------------------
         1    1.23289D+00  0.00D+00  1.23D+00  5.09D+00    0.00000D+00
         2    1.23334D+00  0.00D+00  1.23D+00  5.09D+00    6.34456D-03
         3    1.23468D+00  0.00D+00  1.23D+00  5.10D+00    1.26891D-02
         4    1.23693D+00  0.00D+00  1.24D+00  5.11D+00    1.90337D-02
         5    1.24010D+00  0.00D+00  1.24D+00  5.13D+00    2.53783D-02
         6    1.24422D+00  0.00D+00  1.24D+00  5.16D+00    3.17228D-02
         7    1.24933D+00  0.00D+00  1.25D+00  5.19D+00    3.80674D-02
         8    1.25548D+00  0.00D+00  1.26D+00  5.23D+00    4.44119D-02
         9    1.26273D+00  0.00D+00  1.26D+00  5.27D+00    5.07565D-02

 ** RSPCTL MICROITERATION NUMBER    3

       No.  Residual tot.,    conf., and orb.    Bnorm      Frequency 
      ----------------------------------------------------------------
         1    3.32514D-01  0.00D+00  3.33D-01  5.24D+00    0.00000D+00
         2    3.32718D-01  0.00D+00  3.33D-01  5.24D+00    6.34456D-03
         3    3.33332D-01  0.00D+00  3.33D-01  5.25D+00    1.26891D-02
         4    3.34363D-01  0.00D+00  3.34D-01  5.27D+00    1.90337D-02
         5    3.35826D-01  0.00D+00  3.36D-01  5.29D+00    2.53783D-02
         6    3.37738D-01  0.00D+00  3.38D-01  5.32D+00    3.17228D-02
         7    3.40125D-01  0.00D+00  3.40D-01  5.35D+00    3.80674D-02
         8    3.43021D-01  0.00D+00  3.43D-01  5.40D+00    4.44119D-02
         9    3.46466D-01  0.00D+00  3.46D-01  5.45D+00    5.07565D-02

 ** RSPCTL MICROITERATION NUMBER    4

       No.  Residual tot.,    conf., and orb.    Bnorm      Frequency 
      ----------------------------------------------------------------
         1    1.10969D-01  0.00D+00  1.11D-01  5.25D+00    0.00000D+00
         2    1.11071D-01  0.00D+00  1.11D-01  5.25D+00    6.34456D-03
         3    1.11379D-01  0.00D+00  1.11D-01  5.26D+00    1.26891D-02
         4    1.11897D-01  0.00D+00  1.12D-01  5.28D+00    1.90337D-02
         5    1.12631D-01  0.00D+00  1.13D-01  5.30D+00    2.53783D-02
         6    1.13592D-01  0.00D+00  1.14D-01  5.33D+00    3.17228D-02
         7    1.14793D-01  0.00D+00  1.15D-01  5.36D+00    3.80674D-02
         8    1.16252D-01  0.00D+00  1.16D-01  5.41D+00    4.44119D-02
         9    1.17992D-01  0.00D+00  1.18D-01  5.46D+00    5.07565D-02

 ** RSPCTL MICROITERATION NUMBER    5

       No.  Residual tot.,    conf., and orb.    Bnorm      Frequency 
      ----------------------------------------------------------------
         1    2.37379D-02  0.00D+00  2.37D-02  5.25D+00    0.00000D+00
         2    2.37664D-02  0.00D+00  2.38D-02  5.25D+00    6.34456D-03
         3    2.38522D-02  0.00D+00  2.39D-02  5.26D+00    1.26891D-02
         4    2.39968D-02  0.00D+00  2.40D-02  5.28D+00    1.90337D-02
         5    2.42024D-02  0.00D+00  2.42D-02  5.30D+00    2.53783D-02
         6    2.44722D-02  0.00D+00  2.45D-02  5.33D+00    3.17228D-02
         7    2.48108D-02  0.00D+00  2.48D-02  5.36D+00    3.80674D-02
         8    2.52237D-02  0.00D+00  2.52D-02  5.41D+00    4.44119D-02
         9    2.57185D-02  0.00D+00  2.57D-02  5.46D+00    5.07565D-02

 ** RSPCTL MICROITERATION NUMBER    6

       No.  Residual tot.,    conf., and orb.    Bnorm      Frequency 
      ----------------------------------------------------------------
         1    3.31978D-03  0.00D+00  3.32D-03  5.25D+00    0.00000D+00
         2    3.32401D-03  0.00D+00  3.32D-03  5.25D+00    6.34456D-03
         3    3.33678D-03  0.00D+00  3.34D-03  5.26D+00    1.26891D-02
         4    3.35831D-03  0.00D+00  3.36D-03  5.28D+00    1.90337D-02
         5    3.38898D-03  0.00D+00  3.39D-03  5.30D+00    2.53783D-02
         6    3.42935D-03  0.00D+00  3.43D-03  5.33D+00    3.17228D-02
         7    3.48020D-03  0.00D+00  3.48D-03  5.36D+00    3.80674D-02
         8    3.54251D-03  0.00D+00  3.54D-03  5.41D+00    4.44119D-02
         9    3.61759D-03  0.00D+00  3.62D-03  5.46D+00    5.07565D-02

 *** THE REQUESTED    9 SOLUTION VECTORS CONVERGED

 Convergence of RSP solution vectors, threshold = 1.00D-03
 ---------------------------------------------------------------
 (dimension of paired reduced space:  104)
 RSP solution vector no.    1; norm of residual   6.33D-04
 RSP solution vector no.    2; norm of residual   6.33D-04
 RSP solution vector no.    3; norm of residual   6.34D-04
 RSP solution vector no.    4; norm of residual   6.36D-04
 RSP solution vector no.    5; norm of residual   6.40D-04
 RSP solution vector no.    6; norm of residual   6.44D-04
 RSP solution vector no.    7; norm of residual   6.49D-04
 RSP solution vector no.    8; norm of residual   6.55D-04
 RSP solution vector no.    9; norm of residual   6.63D-04

 *** RSPCTL MICROITERATIONS CONVERGED

@ QRLRVE: SINGLET SOLUTION FOR SYMMETRY    1  ( A  )    LABEL   XDIPLEN     FREQUENCY   0.000000D+00

@ QRLRVE:  << XDIPLEN  ; XDIPLEN  >> (   0.00000):     31.7258906411    

@ QRLRVE:  << YDIPLEN  ; XDIPLEN  >> (   0.00000):     12.8473968146    

@ QRLRVE:  << ZDIPLEN  ; XDIPLEN  >> (   0.00000):   -1.329386159430E-14

@ QRLRVE: SINGLET SOLUTION FOR SYMMETRY    1  ( A  )    LABEL   XDIPLEN     FREQUENCY   0.634456D-02

@ QRLRVE:  << XDIPLEN  ; XDIPLEN  >> (   0.00634):     31.7329768118    

@ QRLRVE:  << YDIPLEN  ; XDIPLEN  >> (   0.00634):     12.8554705464    

@ QRLRVE:  << ZDIPLEN  ; XDIPLEN  >> (   0.00634):   -1.331204589430E-14

@ QRLRVE: SINGLET SOLUTION FOR SYMMETRY    1  ( A  )    LABEL   XDIPLEN     FREQUENCY   0.126891D-01

@ QRLRVE:  << XDIPLEN  ; XDIPLEN  >> (   0.01269):     31.7542747757    

@ QRLRVE:  << YDIPLEN  ; XDIPLEN  >> (   0.01269):     12.8797624876    

@ QRLRVE:  << ZDIPLEN  ; XDIPLEN  >> (   0.01269):   -1.336680091306E-14

@ QRLRVE: SINGLET SOLUTION FOR SYMMETRY    1  ( A  )    LABEL   XDIPLEN     FREQUENCY   0.190337D-01

@ QRLRVE:  << XDIPLEN  ; XDIPLEN  >> (   0.01903):     31.7899037002    

@ QRLRVE:  << YDIPLEN  ; XDIPLEN  >> (   0.01903):     12.9204866103    

@ QRLRVE:  << ZDIPLEN  ; XDIPLEN  >> (   0.01903):   -1.345873874062E-14

@ QRLRVE: SINGLET SOLUTION FOR SYMMETRY    1  ( A  )    LABEL   XDIPLEN     FREQUENCY   0.253783D-01

@ QRLRVE:  << XDIPLEN  ; XDIPLEN  >> (   0.02538):     31.8400649370    

@ QRLRVE:  << YDIPLEN  ; XDIPLEN  >> (   0.02538):     12.9780054036    

@ QRLRVE:  << ZDIPLEN  ; XDIPLEN  >> (   0.02538):   -1.358889895735E-14

@ QRLRVE: SINGLET SOLUTION FOR SYMMETRY    1  ( A  )    LABEL   XDIPLEN     FREQUENCY   0.317228D-01

@ QRLRVE:  << XDIPLEN  ; XDIPLEN  >> (   0.03172):     31.9050462664    

@ QRLRVE:  << YDIPLEN  ; XDIPLEN  >> (   0.03172):     13.0528389817    

@ QRLRVE:  << ZDIPLEN  ; XDIPLEN  >> (   0.03172):   -1.375877892075E-14

@ QRLRVE: SINGLET SOLUTION FOR SYMMETRY    1  ( A  )    LABEL   XDIPLEN     FREQUENCY   0.380674D-01

@ QRLRVE:  << XDIPLEN  ; XDIPLEN  >> (   0.03807):     31.9852281175    

@ QRLRVE:  << YDIPLEN  ; XDIPLEN  >> (   0.03807):     13.1456784725    

@ QRLRVE:  << ZDIPLEN  ; XDIPLEN  >> (   0.03807):   -1.397037855708E-14

@ QRLRVE: SINGLET SOLUTION FOR SYMMETRY    1  ( A  )    LABEL   XDIPLEN     FREQUENCY   0.444119D-01

@ QRLRVE:  << XDIPLEN  ; XDIPLEN  >> (   0.04441):     32.0810920718    

@ QRLRVE:  << YDIPLEN  ; XDIPLEN  >> (   0.04441):     13.2574043867    

@ QRLRVE:  << ZDIPLEN  ; XDIPLEN  >> (   0.04441):   -1.422626231343E-14

@ QRLRVE: SINGLET SOLUTION FOR SYMMETRY    1  ( A  )    LABEL   XDIPLEN     FREQUENCY   0.507565D-01

@ QRLRVE:  << XDIPLEN  ; XDIPLEN  >> (   0.05076):     32.1932320878    

@ QRLRVE:  << YDIPLEN  ; XDIPLEN  >> (   0.05076):     13.3891109713    

@ QRLRVE:  << ZDIPLEN  ; XDIPLEN  >> (   0.05076):   -1.452964210404E-14


 QRLRVE -- linear response calculation for symmetry  1  ( A  )
 QRLRVE -- operator label : YDIPLEN 
 QRLRVE -- operator spin  :   0
 QRLRVE -- frequencies :  0.000000  0.006345  0.012689  0.019034  0.025378
                          0.031723  0.038067  0.044412  0.050757



 ---  SOLVING SETS OF LINEAR EQUATIONS FOR LINEAR RESPONSE PROPERTIES ---

 Operator symmetry = 1  ( A  ); triplet =   F

RSPORT:    2 out of    9 new trial vectors linear dependent

 ** RSPCTL MICROITERATION NUMBER    1

       No.  Residual tot.,    conf., and orb.    Bnorm      Frequency 
      ----------------------------------------------------------------
         1    4.81836D+00  0.00D+00  4.82D+00  5.62D+00    0.00000D+00
         2    4.82006D+00  0.00D+00  4.82D+00  5.62D+00    6.34456D-03
         3    4.82515D+00  0.00D+00  4.83D+00  5.63D+00    1.26891D-02
         4    4.83367D+00  0.00D+00  4.83D+00  5.65D+00    1.90337D-02
         5    4.84566D+00  0.00D+00  4.85D+00  5.68D+00    2.53783D-02
         6    4.86118D+00  0.00D+00  4.86D+00  5.72D+00    3.17228D-02
         7    4.88033D+00  0.00D+00  4.88D+00  5.76D+00    3.80674D-02
         8    4.90319D+00  0.00D+00  4.90D+00  5.81D+00    4.44119D-02
         9    4.92990D+00  0.00D+00  4.93D+00  5.87D+00    5.07565D-02

 ** RSPCTL MICROITERATION NUMBER    2

       No.  Residual tot.,    conf., and orb.    Bnorm      Frequency 
      ----------------------------------------------------------------
         1    1.70030D+00  0.00D+00  1.70D+00  7.43D+00    0.00000D+00
         2    1.70160D+00  0.00D+00  1.70D+00  7.43D+00    6.34456D-03
         3    1.70550D+00  0.00D+00  1.71D+00  7.45D+00    1.26891D-02
         4    1.71206D+00  0.00D+00  1.71D+00  7.49D+00    1.90337D-02
         5    1.72134D+00  0.00D+00  1.72D+00  7.54D+00    2.53783D-02
         6    1.73344D+00  0.00D+00  1.73D+00  7.61D+00    3.17228D-02
         7    1.74848D+00  0.00D+00  1.75D+00  7.69D+00    3.80674D-02
         8    1.76664D+00  0.00D+00  1.77D+00  7.78D+00    4.44119D-02
         9    1.78811D+00  0.00D+00  1.79D+00  7.90D+00    5.07565D-02

 ** RSPCTL MICROITERATION NUMBER    3

       No.  Residual tot.,    conf., and orb.    Bnorm      Frequency 
      ----------------------------------------------------------------
         1    5.00523D-01  0.00D+00  5.01D-01  7.69D+00    0.00000D+00
         2    5.01132D-01  0.00D+00  5.01D-01  7.70D+00    6.34456D-03
         3    5.02968D-01  0.00D+00  5.03D-01  7.72D+00    1.26891D-02
         4    5.06058D-01  0.00D+00  5.06D-01  7.76D+00    1.90337D-02
         5    5.10450D-01  0.00D+00  5.10D-01  7.82D+00    2.53783D-02
         6    5.16211D-01  0.00D+00  5.16D-01  7.90D+00    3.17228D-02
         7    5.23433D-01  0.00D+00  5.23D-01  7.99D+00    3.80674D-02
         8    5.32231D-01  0.00D+00  5.32D-01  8.10D+00    4.44119D-02
         9    5.42755D-01  0.00D+00  5.43D-01  8.23D+00    5.07565D-02

 ** RSPCTL MICROITERATION NUMBER    4

       No.  Residual tot.,    conf., and orb.    Bnorm      Frequency 
      ----------------------------------------------------------------
         1    1.21379D-01  0.00D+00  1.21D-01  7.70D+00    0.00000D+00
         2    1.21505D-01  0.00D+00  1.22D-01  7.71D+00    6.34456D-03
         3    1.21885D-01  0.00D+00  1.22D-01  7.74D+00    1.26891D-02
         4    1.22525D-01  0.00D+00  1.23D-01  7.78D+00    1.90337D-02
         5    1.23437D-01  0.00D+00  1.23D-01  7.83D+00    2.53783D-02
         6    1.24637D-01  0.00D+00  1.25D-01  7.91D+00    3.17228D-02
         7    1.26146D-01  0.00D+00  1.26D-01  8.00D+00    3.80674D-02
         8    1.27993D-01  0.00D+00  1.28D-01  8.11D+00    4.44119D-02
         9    1.30214D-01  0.00D+00  1.30D-01  8.25D+00    5.07565D-02

 ** RSPCTL MICROITERATION NUMBER    5

       No.  Residual tot.,    conf., and orb.    Bnorm      Frequency 
      ----------------------------------------------------------------
         1    2.04237D-02  0.00D+00  2.04D-02  7.70D+00    0.00000D+00
         2    2.04387D-02  0.00D+00  2.04D-02  7.71D+00    6.34456D-03
         3    2.04841D-02  0.00D+00  2.05D-02  7.74D+00    1.26891D-02
         4    2.05607D-02  0.00D+00  2.06D-02  7.78D+00    1.90337D-02
         5    2.06703D-02  0.00D+00  2.07D-02  7.83D+00    2.53783D-02
         6    2.08153D-02  0.00D+00  2.08D-02  7.91D+00    3.17228D-02
         7    2.09990D-02  0.00D+00  2.10D-02  8.00D+00    3.80674D-02
         8    2.12260D-02  0.00D+00  2.12D-02  8.11D+00    4.44119D-02
[...]
@ B-freq = 0.019034  C-freq = 0.019034     beta(Y;Z,Y) =      0.00000000
@ B-freq = 0.019034  C-freq = 0.019034     beta(Z;Z,Y) =     43.25339106
@ B-freq = 0.025378  C-freq = 0.019034     beta(X;Z,Y) =     -0.00000000
@ B-freq = 0.025378  C-freq = 0.019034     beta(Y;Z,Y) =     -0.00000000
@ B-freq = 0.025378  C-freq = 0.019034     beta(Z;Z,Y) =     43.34782229
@ B-freq = 0.000000  C-freq = 0.025378     beta(X;X,Y) = beta(X,Y,X)
@ B-freq = 0.000000  C-freq = 0.025378     beta(Y;X,Y) = beta(Y,Y,X)
@ B-freq = 0.000000  C-freq = 0.025378     beta(Z;X,Y) = beta(Z,Y,X)
@ B-freq = 0.006345  C-freq = 0.025378     beta(X;X,Y) = beta(X,Y,X)
@ B-freq = 0.006345  C-freq = 0.025378     beta(Y;X,Y) = beta(Y,Y,X)
@ B-freq = 0.006345  C-freq = 0.025378     beta(Z;X,Y) = beta(Z,Y,X)
@ B-freq = 0.012689  C-freq = 0.025378     beta(X;X,Y) = beta(X,Y,X)
@ B-freq = 0.012689  C-freq = 0.025378     beta(Y;X,Y) = beta(Y,Y,X)
@ B-freq = 0.012689  C-freq = 0.025378     beta(Z;X,Y) = beta(Z,Y,X)
@ B-freq = 0.019034  C-freq = 0.025378     beta(X;X,Y) = beta(X,Y,X)
@ B-freq = 0.019034  C-freq = 0.025378     beta(Y;X,Y) = beta(Y,Y,X)
@ B-freq = 0.019034  C-freq = 0.025378     beta(Z;X,Y) = beta(Z,Y,X)
@ B-freq = 0.025378  C-freq = 0.025378     beta(X;X,Y) = beta(X,Y,X)
@ B-freq = 0.025378  C-freq = 0.025378     beta(Y;X,Y) = beta(Y,Y,X)
@ B-freq = 0.025378  C-freq = 0.025378     beta(Z;X,Y) = beta(Z,Y,X)
@ B-freq = 0.000000  C-freq = 0.025378     beta(X;Y,Y) = beta(X,Y,Y)
@ B-freq = 0.000000  C-freq = 0.025378     beta(Y;Y,Y) = beta(Y,Y,Y)
@ B-freq = 0.000000  C-freq = 0.025378     beta(Z;Y,Y) = beta(Z,Y,Y)
@ B-freq = 0.006345  C-freq = 0.025378     beta(X;Y,Y) = beta(X,Y,Y)
@ B-freq = 0.006345  C-freq = 0.025378     beta(Y;Y,Y) = beta(Y,Y,Y)
@ B-freq = 0.006345  C-freq = 0.025378     beta(Z;Y,Y) = beta(Z,Y,Y)
@ B-freq = 0.012689  C-freq = 0.025378     beta(X;Y,Y) = beta(X,Y,Y)
@ B-freq = 0.012689  C-freq = 0.025378     beta(Y;Y,Y) = beta(Y,Y,Y)
@ B-freq = 0.012689  C-freq = 0.025378     beta(Z;Y,Y) = beta(Z,Y,Y)
@ B-freq = 0.019034  C-freq = 0.025378     beta(X;Y,Y) = beta(X,Y,Y)
@ B-freq = 0.019034  C-freq = 0.025378     beta(Y;Y,Y) = beta(Y,Y,Y)
@ B-freq = 0.019034  C-freq = 0.025378     beta(Z;Y,Y) = beta(Z,Y,Y)
@ B-freq = 0.025378  C-freq = 0.025378     beta(X;Y,Y) =     -0.49394422
@ B-freq = 0.025378  C-freq = 0.025378     beta(Y;Y,Y) =     68.51910373
@ B-freq = 0.025378  C-freq = 0.025378     beta(Z;Y,Y) =     -0.00000000
@ B-freq = 0.000000  C-freq = 0.025378     beta(X;Z,Y) =     -0.00000000
@ B-freq = 0.000000  C-freq = 0.025378     beta(Y;Z,Y) =      0.00000000
@ B-freq = 0.000000  C-freq = 0.025378     beta(Z;Z,Y) =     43.33792844
@ B-freq = 0.006345  C-freq = 0.025378     beta(X;Z,Y) =     -0.00000000
@ B-freq = 0.006345  C-freq = 0.025378     beta(Y;Z,Y) =      0.00000000
@ B-freq = 0.006345  C-freq = 0.025378     beta(Z;Z,Y) =     43.39547622
@ B-freq = 0.012689  C-freq = 0.025378     beta(X;Z,Y) =     -0.00000000
@ B-freq = 0.012689  C-freq = 0.025378     beta(Y;Z,Y) =      0.00000000
@ B-freq = 0.012689  C-freq = 0.025378     beta(Z;Z,Y) =     43.47098431
@ B-freq = 0.019034  C-freq = 0.025378     beta(X;Z,Y) =     -0.00000000
@ B-freq = 0.019034  C-freq = 0.025378     beta(Y;Z,Y) =      0.00000000
@ B-freq = 0.019034  C-freq = 0.025378     beta(Z;Z,Y) =     43.55808671
@ B-freq = 0.025378  C-freq = 0.025378     beta(X;Z,Y) =     -0.00000000
@ B-freq = 0.025378  C-freq = 0.025378     beta(Y;Z,Y) =     -0.00000000
@ B-freq = 0.025378  C-freq = 0.025378     beta(Z;Z,Y) =     43.64619064
@ B-freq = 0.000000  C-freq = 0.000000     beta(X;X,Z) = beta(Z,X,X)
@ B-freq = 0.000000  C-freq = 0.000000     beta(Y;X,Z) = beta(Z,Y,X)
@ B-freq = 0.000000  C-freq = 0.000000     beta(Z;X,Z) = beta(Z,Z,X)
@ B-freq = 0.006345  C-freq = 0.000000     beta(X;X,Z) = beta(X,Z,X)
@ B-freq = 0.006345  C-freq = 0.000000     beta(Y;X,Z) = beta(Y,Z,X)
@ B-freq = 0.006345  C-freq = 0.000000     beta(Z;X,Z) = beta(Z,Z,X)
@ B-freq = 0.012689  C-freq = 0.000000     beta(X;X,Z) = beta(X,Z,X)
@ B-freq = 0.012689  C-freq = 0.000000     beta(Y;X,Z) = beta(Y,Z,X)
@ B-freq = 0.012689  C-freq = 0.000000     beta(Z;X,Z) = beta(Z,Z,X)
@ B-freq = 0.019034  C-freq = 0.000000     beta(X;X,Z) = beta(X,Z,X)
@ B-freq = 0.019034  C-freq = 0.000000     beta(Y;X,Z) = beta(Y,Z,X)
@ B-freq = 0.019034  C-freq = 0.000000     beta(Z;X,Z) = beta(Z,Z,X)
@ B-freq = 0.025378  C-freq = 0.000000     beta(X;X,Z) = beta(X,Z,X)
@ B-freq = 0.025378  C-freq = 0.000000     beta(Y;X,Z) = beta(Y,Z,X)
@ B-freq = 0.025378  C-freq = 0.000000     beta(Z;X,Z) = beta(Z,Z,X)
@ B-freq = 0.000000  C-freq = 0.000000     beta(X;Y,Z) = beta(Z,Y,X)
@ B-freq = 0.000000  C-freq = 0.000000     beta(Y;Y,Z) = beta(Z,Y,Y)
@ B-freq = 0.000000  C-freq = 0.000000     beta(Z;Y,Z) = beta(Z,Z,Y)
@ B-freq = 0.006345  C-freq = 0.000000     beta(X;Y,Z) = beta(X,Z,Y)
@ B-freq = 0.006345  C-freq = 0.000000     beta(Y;Y,Z) = beta(Y,Z,Y)
@ B-freq = 0.006345  C-freq = 0.000000     beta(Z;Y,Z) = beta(Z,Z,Y)
@ B-freq = 0.012689  C-freq = 0.000000     beta(X;Y,Z) = beta(X,Z,Y)
@ B-freq = 0.012689  C-freq = 0.000000     beta(Y;Y,Z) = beta(Y,Z,Y)
@ B-freq = 0.012689  C-freq = 0.000000     beta(Z;Y,Z) = beta(Z,Z,Y)
@ B-freq = 0.019034  C-freq = 0.000000     beta(X;Y,Z) = beta(X,Z,Y)
@ B-freq = 0.019034  C-freq = 0.000000     beta(Y;Y,Z) = beta(Y,Z,Y)
@ B-freq = 0.019034  C-freq = 0.000000     beta(Z;Y,Z) = beta(Z,Z,Y)
@ B-freq = 0.025378  C-freq = 0.000000     beta(X;Y,Z) = beta(X,Z,Y)
@ B-freq = 0.025378  C-freq = 0.000000     beta(Y;Y,Z) = beta(Y,Z,Y)
@ B-freq = 0.025378  C-freq = 0.000000     beta(Z;Y,Z) = beta(Z,Z,Y)
@ B-freq = 0.000000  C-freq = 0.000000     beta(X;Z,Z) = beta(Z,Z,X)
@ B-freq = 0.000000  C-freq = 0.000000     beta(Y;Z,Z) = beta(Z,Z,Y)
@ B-freq = 0.000000  C-freq = 0.000000     beta(X;Z,Z) =     22.36837868
@ B-freq = 0.000000  C-freq = 0.000000     beta(Y;Z,Z) =     42.68462329
@ B-freq = 0.000000  C-freq = 0.000000     beta(Z;Z,Z) =      0.00000000
@ B-freq = 0.006345  C-freq = 0.000000     beta(X;Z,Z) =     22.38795749
@ B-freq = 0.006345  C-freq = 0.000000     beta(Y;Z,Z) =     42.72518626
@ B-freq = 0.006345  C-freq = 0.000000     beta(Z;Z,Z) =      0.00000000
@ B-freq = 0.012689  C-freq = 0.000000     beta(X;Z,Z) =     22.44681256
@ B-freq = 0.012689  C-freq = 0.000000     beta(Y;Z,Z) =     42.84709792
@ B-freq = 0.012689  C-freq = 0.000000     beta(Z;Z,Z) =      0.00000000
@ B-freq = 0.019034  C-freq = 0.000000     beta(X;Z,Z) =     22.54529413
@ B-freq = 0.019034  C-freq = 0.000000     beta(Y;Z,Z) =     43.05100784
@ B-freq = 0.019034  C-freq = 0.000000     beta(Z;Z,Z) =      0.00000000
@ B-freq = 0.025378  C-freq = 0.000000     beta(X;Z,Z) =     22.68396442
@ B-freq = 0.025378  C-freq = 0.000000     beta(Y;Z,Z) =     43.33792992
@ B-freq = 0.025378  C-freq = 0.000000     beta(Z;Z,Z) =      0.00000000
@ B-freq = 0.000000  C-freq = 0.006345     beta(X;X,Z) = beta(X,Z,X)
@ B-freq = 0.000000  C-freq = 0.006345     beta(Y;X,Z) = beta(Y,Z,X)
@ B-freq = 0.000000  C-freq = 0.006345     beta(Z;X,Z) = beta(Z,Z,X)
@ B-freq = 0.006345  C-freq = 0.006345     beta(X;X,Z) = beta(X,Z,X)
@ B-freq = 0.006345  C-freq = 0.006345     beta(Y;X,Z) = beta(Y,Z,X)
@ B-freq = 0.006345  C-freq = 0.006345     beta(Z;X,Z) = beta(Z,Z,X)
@ B-freq = 0.012689  C-freq = 0.006345     beta(X;X,Z) = beta(X,Z,X)
@ B-freq = 0.012689  C-freq = 0.006345     beta(Y;X,Z) = beta(Y,Z,X)
@ B-freq = 0.012689  C-freq = 0.006345     beta(Z;X,Z) = beta(Z,Z,X)
@ B-freq = 0.019034  C-freq = 0.006345     beta(X;X,Z) = beta(X,Z,X)
@ B-freq = 0.019034  C-freq = 0.006345     beta(Y;X,Z) = beta(Y,Z,X)
@ B-freq = 0.019034  C-freq = 0.006345     beta(Z;X,Z) = beta(Z,Z,X)
@ B-freq = 0.025378  C-freq = 0.006345     beta(X;X,Z) = beta(X,Z,X)
@ B-freq = 0.025378  C-freq = 0.006345     beta(Y;X,Z) = beta(Y,Z,X)
@ B-freq = 0.025378  C-freq = 0.006345     beta(Z;X,Z) = beta(Z,Z,X)
@ B-freq = 0.000000  C-freq = 0.006345     beta(X;Y,Z) = beta(X,Z,Y)
@ B-freq = 0.000000  C-freq = 0.006345     beta(Y;Y,Z) = beta(Y,Z,Y)
@ B-freq = 0.000000  C-freq = 0.006345     beta(Z;Y,Z) = beta(Z,Z,Y)
@ B-freq = 0.006345  C-freq = 0.006345     beta(X;Y,Z) = beta(X,Z,Y)
@ B-freq = 0.006345  C-freq = 0.006345     beta(Y;Y,Z) = beta(Y,Z,Y)
@ B-freq = 0.006345  C-freq = 0.006345     beta(Z;Y,Z) = beta(Z,Z,Y)
@ B-freq = 0.012689  C-freq = 0.006345     beta(X;Y,Z) = beta(X,Z,Y)
@ B-freq = 0.012689  C-freq = 0.006345     beta(Y;Y,Z) = beta(Y,Z,Y)
@ B-freq = 0.012689  C-freq = 0.006345     beta(Z;Y,Z) = beta(Z,Z,Y)
@ B-freq = 0.019034  C-freq = 0.006345     beta(X;Y,Z) = beta(X,Z,Y)
@ B-freq = 0.019034  C-freq = 0.006345     beta(Y;Y,Z) = beta(Y,Z,Y)
@ B-freq = 0.019034  C-freq = 0.006345     beta(Z;Y,Z) = beta(Z,Z,Y)
@ B-freq = 0.025378  C-freq = 0.006345     beta(X;Y,Z) = beta(X,Z,Y)
@ B-freq = 0.025378  C-freq = 0.006345     beta(Y;Y,Z) = beta(Y,Z,Y)
@ B-freq = 0.025378  C-freq = 0.006345     beta(Z;Y,Z) = beta(Z,Z,Y)
@ B-freq = 0.000000  C-freq = 0.006345     beta(X;Z,Z) = beta(X,Z,Z)
@ B-freq = 0.000000  C-freq = 0.006345     beta(Y;Z,Z) = beta(Y,Z,Z)
@ B-freq = 0.000000  C-freq = 0.006345     beta(Z;Z,Z) = beta(Z,Z,Z)
@ B-freq = 0.006345  C-freq = 0.006345     beta(X;Z,Z) =     22.43950873
@ B-freq = 0.006345  C-freq = 0.006345     beta(Y;Z,Z) =     42.83457707
@ B-freq = 0.006345  C-freq = 0.006345     beta(Z;Z,Z) =      0.00000000
@ B-freq = 0.012689  C-freq = 0.006345     beta(X;Z,Z) =     22.53081314
@ B-freq = 0.012689  C-freq = 0.006345     beta(Y;Z,Z) =     43.02640324
@ B-freq = 0.012689  C-freq = 0.006345     beta(Z;Z,Z) =      0.00000000
@ B-freq = 0.019034  C-freq = 0.006345     beta(X;Z,Z) =     22.66256380
@ B-freq = 0.019034  C-freq = 0.006345     beta(Y;Z,Z) =     43.30209145
@ B-freq = 0.019034  C-freq = 0.006345     beta(Z;Z,Z) =      0.00000000
@ B-freq = 0.025378  C-freq = 0.006345     beta(X;Z,Z) =     22.83568702
@ B-freq = 0.025378  C-freq = 0.006345     beta(Y;Z,Z) =     43.66347949
@ B-freq = 0.025378  C-freq = 0.006345     beta(Z;Z,Z) =      0.00000000
@ B-freq = 0.000000  C-freq = 0.012689     beta(X;X,Z) = beta(X,Z,X)
@ B-freq = 0.000000  C-freq = 0.012689     beta(Y;X,Z) = beta(Y,Z,X)
@ B-freq = 0.000000  C-freq = 0.012689     beta(Z;X,Z) = beta(Z,Z,X)
@ B-freq = 0.006345  C-freq = 0.012689     beta(X;X,Z) = beta(X,Z,X)
@ B-freq = 0.006345  C-freq = 0.012689     beta(Y;X,Z) = beta(Y,Z,X)
@ B-freq = 0.006345  C-freq = 0.012689     beta(Z;X,Z) = beta(Z,Z,X)
@ B-freq = 0.012689  C-freq = 0.012689     beta(X;X,Z) = beta(X,Z,X)
@ B-freq = 0.012689  C-freq = 0.012689     beta(Y;X,Z) = beta(Y,Z,X)
@ B-freq = 0.012689  C-freq = 0.012689     beta(Z;X,Z) = beta(Z,Z,X)
@ B-freq = 0.019034  C-freq = 0.012689     beta(X;X,Z) = beta(X,Z,X)
@ B-freq = 0.019034  C-freq = 0.012689     beta(Y;X,Z) = beta(Y,Z,X)
@ B-freq = 0.019034  C-freq = 0.012689     beta(Z;X,Z) = beta(Z,Z,X)
@ B-freq = 0.025378  C-freq = 0.012689     beta(X;X,Z) = beta(X,Z,X)
@ B-freq = 0.025378  C-freq = 0.012689     beta(Y;X,Z) = beta(Y,Z,X)
@ B-freq = 0.025378  C-freq = 0.012689     beta(Z;X,Z) = beta(Z,Z,X)
@ B-freq = 0.000000  C-freq = 0.012689     beta(X;Y,Z) = beta(X,Z,Y)
@ B-freq = 0.000000  C-freq = 0.012689     beta(Y;Y,Z) = beta(Y,Z,Y)
@ B-freq = 0.000000  C-freq = 0.012689     beta(Z;Y,Z) = beta(Z,Z,Y)
@ B-freq = 0.006345  C-freq = 0.012689     beta(X;Y,Z) = beta(X,Z,Y)
@ B-freq = 0.006345  C-freq = 0.012689     beta(Y;Y,Z) = beta(Y,Z,Y)
@ B-freq = 0.006345  C-freq = 0.012689     beta(Z;Y,Z) = beta(Z,Z,Y)
@ B-freq = 0.012689  C-freq = 0.012689     beta(X;Y,Z) = beta(X,Z,Y)
@ B-freq = 0.012689  C-freq = 0.012689     beta(Y;Y,Z) = beta(Y,Z,Y)
@ B-freq = 0.012689  C-freq = 0.012689     beta(Z;Y,Z) = beta(Z,Z,Y)
@ B-freq = 0.019034  C-freq = 0.012689     beta(X;Y,Z) = beta(X,Z,Y)
@ B-freq = 0.019034  C-freq = 0.012689     beta(Y;Y,Z) = beta(Y,Z,Y)
@ B-freq = 0.019034  C-freq = 0.012689     beta(Z;Y,Z) = beta(Z,Z,Y)
@ B-freq = 0.025378  C-freq = 0.012689     beta(X;Y,Z) = beta(X,Z,Y)
@ B-freq = 0.025378  C-freq = 0.012689     beta(Y;Y,Z) = beta(Y,Z,Y)
@ B-freq = 0.025378  C-freq = 0.012689     beta(Z;Y,Z) = beta(Z,Z,Y)
@ B-freq = 0.000000  C-freq = 0.012689     beta(X;Z,Z) = beta(X,Z,Z)
@ B-freq = 0.000000  C-freq = 0.012689     beta(Y;Z,Z) = beta(Y,Z,Z)
@ B-freq = 0.000000  C-freq = 0.012689     beta(Z;Z,Z) = beta(Z,Z,Z)
@ B-freq = 0.006345  C-freq = 0.012689     beta(X;Z,Z) = beta(X,Z,Z)
@ B-freq = 0.006345  C-freq = 0.012689     beta(Y;Z,Z) = beta(Y,Z,Z)
@ B-freq = 0.006345  C-freq = 0.012689     beta(Z;Z,Z) = beta(Z,Z,Z)
@ B-freq = 0.012689  C-freq = 0.012689     beta(X;Z,Z) =     22.65535083
@ B-freq = 0.012689  C-freq = 0.012689     beta(Y;Z,Z) =     43.28993939
@ B-freq = 0.012689  C-freq = 0.012689     beta(Z;Z,Z) =      0.00000000
@ B-freq = 0.019034  C-freq = 0.012689     beta(X;Z,Z) =     22.82148048
@ B-freq = 0.019034  C-freq = 0.012689     beta(Y;Z,Z) =     43.63995543
@ B-freq = 0.019034  C-freq = 0.012689     beta(Z;Z,Z) =      0.00000000
@ B-freq = 0.025378  C-freq = 0.012689     beta(X;Z,Z) =     23.03051982
@ B-freq = 0.025378  C-freq = 0.012689     beta(Y;Z,Z) =     44.07917851
@ B-freq = 0.025378  C-freq = 0.012689     beta(Z;Z,Z) =      0.00000000
@ B-freq = 0.000000  C-freq = 0.019034     beta(X;X,Z) = beta(X,Z,X)
@ B-freq = 0.000000  C-freq = 0.019034     beta(Y;X,Z) = beta(Y,Z,X)
@ B-freq = 0.000000  C-freq = 0.019034     beta(Z;X,Z) = beta(Z,Z,X)
@ B-freq = 0.006345  C-freq = 0.019034     beta(X;X,Z) = beta(X,Z,X)
@ B-freq = 0.006345  C-freq = 0.019034     beta(Y;X,Z) = beta(Y,Z,X)
@ B-freq = 0.006345  C-freq = 0.019034     beta(Z;X,Z) = beta(Z,Z,X)
@ B-freq = 0.012689  C-freq = 0.019034     beta(X;X,Z) = beta(X,Z,X)
@ B-freq = 0.012689  C-freq = 0.019034     beta(Y;X,Z) = beta(Y,Z,X)
@ B-freq = 0.012689  C-freq = 0.019034     beta(Z;X,Z) = beta(Z,Z,X)
@ B-freq = 0.019034  C-freq = 0.019034     beta(X;X,Z) = beta(X,Z,X)
@ B-freq = 0.019034  C-freq = 0.019034     beta(Y;X,Z) = beta(Y,Z,X)
@ B-freq = 0.019034  C-freq = 0.019034     beta(Z;X,Z) = beta(Z,Z,X)
@ B-freq = 0.025378  C-freq = 0.019034     beta(X;X,Z) = beta(X,Z,X)
@ B-freq = 0.025378  C-freq = 0.019034     beta(Y;X,Z) = beta(Y,Z,X)
@ B-freq = 0.025378  C-freq = 0.019034     beta(Z;X,Z) = beta(Z,Z,X)
@ B-freq = 0.000000  C-freq = 0.019034     beta(X;Y,Z) = beta(X,Z,Y)
@ B-freq = 0.000000  C-freq = 0.019034     beta(Y;Y,Z) = beta(Y,Z,Y)
@ B-freq = 0.000000  C-freq = 0.019034     beta(Z;Y,Z) = beta(Z,Z,Y)
@ B-freq = 0.006345  C-freq = 0.019034     beta(X;Y,Z) = beta(X,Z,Y)
@ B-freq = 0.006345  C-freq = 0.019034     beta(Y;Y,Z) = beta(Y,Z,Y)
@ B-freq = 0.006345  C-freq = 0.019034     beta(Z;Y,Z) = beta(Z,Z,Y)
@ B-freq = 0.012689  C-freq = 0.019034     beta(X;Y,Z) = beta(X,Z,Y)
@ B-freq = 0.012689  C-freq = 0.019034     beta(Y;Y,Z) = beta(Y,Z,Y)
@ B-freq = 0.012689  C-freq = 0.019034     beta(Z;Y,Z) = beta(Z,Z,Y)
@ B-freq = 0.019034  C-freq = 0.019034     beta(X;Y,Z) = beta(X,Z,Y)
@ B-freq = 0.019034  C-freq = 0.019034     beta(Y;Y,Z) = beta(Y,Z,Y)
@ B-freq = 0.019034  C-freq = 0.019034     beta(Z;Y,Z) = beta(Z,Z,Y)
@ B-freq = 0.025378  C-freq = 0.019034     beta(X;Y,Z) = beta(X,Z,Y)
@ B-freq = 0.025378  C-freq = 0.019034     beta(Y;Y,Z) = beta(Y,Z,Y)
@ B-freq = 0.025378  C-freq = 0.019034     beta(Z;Y,Z) = beta(Z,Z,Y)
@ B-freq = 0.000000  C-freq = 0.019034     beta(X;Z,Z) = beta(X,Z,Z)
@ B-freq = 0.000000  C-freq = 0.019034     beta(Y;Z,Z) = beta(Y,Z,Z)
@ B-freq = 0.000000  C-freq = 0.019034     beta(Z;Z,Z) = beta(Z,Z,Z)
@ B-freq = 0.006345  C-freq = 0.019034     beta(X;Z,Z) = beta(X,Z,Z)
@ B-freq = 0.006345  C-freq = 0.019034     beta(Y;Z,Z) = beta(Y,Z,Z)
@ B-freq = 0.006345  C-freq = 0.019034     beta(Z;Z,Z) = beta(Z,Z,Z)
@ B-freq = 0.012689  C-freq = 0.019034     beta(X;Z,Z) = beta(X,Z,Z)
@ B-freq = 0.012689  C-freq = 0.019034     beta(Y;Z,Z) = beta(Y,Z,Z)
@ B-freq = 0.012689  C-freq = 0.019034     beta(Z;Z,Z) = beta(Z,Z,Z)
@ B-freq = 0.019034  C-freq = 0.019034     beta(X;Z,Z) =     23.02348916
@ B-freq = 0.019034  C-freq = 0.019034     beta(Y;Z,Z) =     44.06773964
@ B-freq = 0.019034  C-freq = 0.019034     beta(Z;Z,Z) =      0.00000000
@ B-freq = 0.025378  C-freq = 0.019034     beta(X;Z,Z) =     23.27033732
@ B-freq = 0.025378  C-freq = 0.019034     beta(Y;Z,Z) =     44.58915257
@ B-freq = 0.025378  C-freq = 0.019034     beta(Z;Z,Z) =      0.00000000
@ B-freq = 0.000000  C-freq = 0.025378     beta(X;X,Z) = beta(X,Z,X)
@ B-freq = 0.000000  C-freq = 0.025378     beta(Y;X,Z) = beta(Y,Z,X)
@ B-freq = 0.000000  C-freq = 0.025378     beta(Z;X,Z) = beta(Z,Z,X)
@ B-freq = 0.006345  C-freq = 0.025378     beta(X;X,Z) = beta(X,Z,X)
@ B-freq = 0.006345  C-freq = 0.025378     beta(Y;X,Z) = beta(Y,Z,X)
@ B-freq = 0.006345  C-freq = 0.025378     beta(Z;X,Z) = beta(Z,Z,X)
@ B-freq = 0.012689  C-freq = 0.025378     beta(X;X,Z) = beta(X,Z,X)
@ B-freq = 0.012689  C-freq = 0.025378     beta(Y;X,Z) = beta(Y,Z,X)
@ B-freq = 0.012689  C-freq = 0.025378     beta(Z;X,Z) = beta(Z,Z,X)
@ B-freq = 0.019034  C-freq = 0.025378     beta(X;X,Z) = beta(X,Z,X)
@ B-freq = 0.019034  C-freq = 0.025378     beta(Y;X,Z) = beta(Y,Z,X)
@ B-freq = 0.019034  C-freq = 0.025378     beta(Z;X,Z) = beta(Z,Z,X)
@ B-freq = 0.025378  C-freq = 0.025378     beta(X;X,Z) = beta(X,Z,X)
@ B-freq = 0.025378  C-freq = 0.025378     beta(Y;X,Z) = beta(Y,Z,X)
@ B-freq = 0.025378  C-freq = 0.025378     beta(Z;X,Z) = beta(Z,Z,X)
@ B-freq = 0.000000  C-freq = 0.025378     beta(X;Y,Z) = beta(X,Z,Y)
@ B-freq = 0.000000  C-freq = 0.025378     beta(Y;Y,Z) = beta(Y,Z,Y)
@ B-freq = 0.000000  C-freq = 0.025378     beta(Z;Y,Z) = beta(Z,Z,Y)
@ B-freq = 0.006345  C-freq = 0.025378     beta(X;Y,Z) = beta(X,Z,Y)
@ B-freq = 0.006345  C-freq = 0.025378     beta(Y;Y,Z) = beta(Y,Z,Y)
@ B-freq = 0.006345  C-freq = 0.025378     beta(Z;Y,Z) = beta(Z,Z,Y)
@ B-freq = 0.012689  C-freq = 0.025378     beta(X;Y,Z) = beta(X,Z,Y)
@ B-freq = 0.012689  C-freq = 0.025378     beta(Y;Y,Z) = beta(Y,Z,Y)
@ B-freq = 0.012689  C-freq = 0.025378     beta(Z;Y,Z) = beta(Z,Z,Y)
@ B-freq = 0.019034  C-freq = 0.025378     beta(X;Y,Z) = beta(X,Z,Y)
@ B-freq = 0.019034  C-freq = 0.025378     beta(Y;Y,Z) = beta(Y,Z,Y)
@ B-freq = 0.019034  C-freq = 0.025378     beta(Z;Y,Z) = beta(Z,Z,Y)
@ B-freq = 0.025378  C-freq = 0.025378     beta(X;Y,Z) = beta(X,Z,Y)
@ B-freq = 0.025378  C-freq = 0.025378     beta(Y;Y,Z) = beta(Y,Z,Y)
@ B-freq = 0.025378  C-freq = 0.025378     beta(Z;Y,Z) = beta(Z,Z,Y)
@ B-freq = 0.000000  C-freq = 0.025378     beta(X;Z,Z) = beta(X,Z,Z)
@ B-freq = 0.000000  C-freq = 0.025378     beta(Y;Z,Z) = beta(Y,Z,Z)
@ B-freq = 0.000000  C-freq = 0.025378     beta(Z;Z,Z) = beta(Z,Z,Z)
@ B-freq = 0.006345  C-freq = 0.025378     beta(X;Z,Z) = beta(X,Z,Z)
@ B-freq = 0.006345  C-freq = 0.025378     beta(Y;Z,Z) = beta(Y,Z,Z)
@ B-freq = 0.006345  C-freq = 0.025378     beta(Z;Z,Z) = beta(Z,Z,Z)
@ B-freq = 0.012689  C-freq = 0.025378     beta(X;Z,Z) = beta(X,Z,Z)
@ B-freq = 0.012689  C-freq = 0.025378     beta(Y;Z,Z) = beta(Y,Z,Z)
@ B-freq = 0.012689  C-freq = 0.025378     beta(Z;Z,Z) = beta(Z,Z,Z)
@ B-freq = 0.019034  C-freq = 0.025378     beta(X;Z,Z) = beta(X,Z,Z)
@ B-freq = 0.019034  C-freq = 0.025378     beta(Y;Z,Z) = beta(Y,Z,Z)
@ B-freq = 0.019034  C-freq = 0.025378     beta(Z;Z,Z) = beta(Z,Z,Z)
@ B-freq = 0.025378  C-freq = 0.025378     beta(X;Z,Z) =     23.55736808
@ B-freq = 0.025378  C-freq = 0.025378     beta(Y;Z,Z) =     45.19821548
@ B-freq = 0.025378  C-freq = 0.025378     beta(Z;Z,Z) =      0.00000000

  Total CPU  time used in RESPONSE: 14 minutes 40 seconds
  Total wall time used in RESPONSE: 14 minutes 44 seconds


                   .-------------------------------------------.
                   | End of Dynamic Property Section (RESPONS) |
                   `-------------------------------------------'

  Total CPU  time used in DALTON: 15 minutes 55 seconds
  Total wall time used in DALTON: 16 minutes  0 seconds

 
     Date and time (Linux)  : Sat Jul 27 21:22:25 2024
     Host name              : dn006                                   
