

     ************************************************************************
     *************** Dalton - An Electronic Structure Program ***************
     ************************************************************************

    This is output from DALTON release Dalton2020.0 (2020)
         ( Web site: http://daltonprogram.org )

   ----------------------------------------------------------------------------

    NOTE:
     
    Dalton is an experimental code for the evaluation of molecular
    properties using (MC)SCF, DFT, CI, and CC wave functions.
    The authors accept no responsibility for the performance of
    the code or for the correctness of the results.
     
    The code (in whole or part) is provided under a licence and
    is not to be reproduced for further distribution without
    the written permission of the authors or their representatives.
     
    See the home page "http://daltonprogram.org" for further information.
     
    If results obtained with this code are published,
    the appropriate citations would be both of:
     
       K. Aidas, C. Angeli, K. L. Bak, V. Bakken, R. Bast,
       L. Boman, O. Christiansen, R. Cimiraglia, S. Coriani,
       P. Dahle, E. K. Dalskov, U. Ekstroem,
       T. Enevoldsen, J. J. Eriksen, P. Ettenhuber, B. Fernandez,
       L. Ferrighi, H. Fliegl, L. Frediani, K. Hald, A. Halkier,
       C. Haettig, H. Heiberg, T. Helgaker, A. C. Hennum,
       H. Hettema, E. Hjertenaes, S. Hoest, I.-M. Hoeyvik,
       M. F. Iozzi, B. Jansik, H. J. Aa. Jensen, D. Jonsson,
       P. Joergensen, J. Kauczor, S. Kirpekar,
       T. Kjaergaard, W. Klopper, S. Knecht, R. Kobayashi, H. Koch,
       J. Kongsted, A. Krapp, K. Kristensen, A. Ligabue,
       O. B. Lutnaes, J. I. Melo, K. V. Mikkelsen, R. H. Myhre,
       C. Neiss, C. B. Nielsen, P. Norman, J. Olsen,
       J. M. H. Olsen, A. Osted, M. J. Packer, F. Pawlowski,
       T. B. Pedersen, P. F. Provasi, S. Reine, Z. Rinkevicius,
       T. A. Ruden, K. Ruud, V. Rybkin, P. Salek, C. C. M. Samson,
       A. Sanchez de Meras, T. Saue, S. P. A. Sauer,
       B. Schimmelpfennig, K. Sneskov, A. H. Steindal,
       K. O. Sylvester-Hvid, P. R. Taylor, A. M. Teale,
       E. I. Tellgren, D. P. Tew, A. J. Thorvaldsen, L. Thoegersen,
       O. Vahtras, M. A. Watson, D. J. D. Wilson, M. Ziolkowski
       and H. Agren,
       "The Dalton quantum chemistry program system",
       WIREs Comput. Mol. Sci. 2014, 4:269–284 (doi: 10.1002/wcms.1172)
     
    and
     
       Dalton, a molecular electronic structure program,
       Release Dalton2020.0 (2020), see http://daltonprogram.org
   ----------------------------------------------------------------------------

    Authors in alphabetical order (Major contribution(s) in parenthesis):

  Kestutis Aidas,           Vilnius University,           Lithuania   (QM/MM)
  Celestino Angeli,         University of Ferrara,        Italy       (NEVPT2)
  Keld L. Bak,              UNI-C,                        Denmark     (AOSOPPA, non-adiabatic coupling, magnetic properties)
  Vebjoern Bakken,          University of Oslo,           Norway      (DALTON; geometry optimizer, symmetry detection)
  Radovan Bast,             UiT The Arctic U. of Norway,  Norway      (DALTON installation and execution frameworks)
  Pablo Baudin,             University of Valencia,       Spain       (Cholesky excitation energies)
  Linus Boman,              NTNU,                         Norway      (Cholesky decomposition and subsystems)
  Bruno N. Cabral Tenorio,  Technical Univ. of Denmark,   Denmark     (Lanczos-based CC methods)
  Ove Christiansen,         Aarhus University,            Denmark     (CC module)
  Renzo Cimiraglia,         University of Ferrara,        Italy       (NEVPT2)
  Sonia Coriani,            Technical Univ. of Denmark,   Denmark     (CC and RESPONS modules)
  Janusz Cukras,            University of Warsaw,         Poland      (MChD in RESPONS)
  Paal Dahle,               University of Oslo,           Norway      (Parallelization)
  Erik K. Dalskov,          UNI-C,                        Denmark     (SOPPA)
  Thomas Enevoldsen,        Univ. of Southern Denmark,    Denmark     (SOPPA)
  Janus J. Eriksen,         Aarhus University,            Denmark     (Polarizable embedding, TDA)
  Rasmus Faber,             Technical Univ. of Denmark,   Denmark     (Vib.avg. NMR w. SOPPA, parallel AO-SOPPA, CVS-CC and EOMCC)
  Tobias Fahleson,          KTH Stockholm,                Sweden      (Damped cubic response)
  Berta Fernandez,          U. of Santiago de Compostela, Spain       (Doublet spin, ESR in RESPONS)
  Lara Ferrighi,            Aarhus University,            Denmark     (PCM Cubic response)
  Heike Fliegl,             University of Oslo,           Norway      (CCSD(R12))
  Luca Frediani,            UiT The Arctic U. of Norway,  Norway      (PCM)
  Emmanuel Fromager,        Univ. Strasbourg,             France      (MC-srDFT)
  Bin Gao,                  UiT The Arctic U. of Norway,  Norway      (Gen1Int library)
  Andre S. P. Gomes,        CNRS/Universite de Lille,     France      (Frozen density embedding)
  Christof Haettig,         Ruhr-University Bochum,       Germany     (CC module)
  Kasper Hald,              Aarhus University,            Denmark     (CC module)
  Asger Halkier,            Aarhus University,            Denmark     (CC module)
  Frederik Beyer Hansen,    University of Copenhagen,     Denmark     (Parallel AO-SOPPA)
  Erik D. Hedegaard,        Univ. of Southern Denmark,    Denmark     (Polarizable embedding, QM/MM, and MC-srDFT)
  Hanne Heiberg,            University of Oslo,           Norway      (Geometry analysis, selected one-electron integrals)
  Trygve Helgaker,          University of Oslo,           Norway      (DALTON; ABACUS, ERI, DFT modules, London, and much more)
  Alf Christian Hennum,     University of Oslo,           Norway      (Parity violation)
  Hinne Hettema,            University of Auckland,       New Zealand (Quadratic response in RESPONS; SIRIUS supersymmetry)
  Eirik Hjertenaes,         NTNU,                         Norway      (Cholesky decomposition)
  Pi A. B. Haase,           University of Copenhagen,     Denmark     (Triplet AO-SOPPA)
  Maria Francesca Iozzi,    University of Oslo,           Norway      (RPA)
  Christoph Jacob           TU Braunschweig               Germany     (Frozen density embedding)
  Brano Jansik              Technical Univ. of Ostrava    Czech Rep.  (DFT cubic response)
  Hans Joergen Aa. Jensen,  Univ. of Southern Denmark,    Denmark     (DALTON; SIRIUS, RESPONS, ABACUS, MC-srDFT, and much more)
  Dan Jonsson,              UiT The Arctic U. of Norway,  Norway      (Cubic response in RESPONS module)
  Poul Joergensen,          Aarhus University,            Denmark     (RESPONS, ABACUS, and CC modules)
  Maciej Kaminski,          University of Warsaw,         Poland      (CPPh in RESPONS)
  Joanna Kauczor,           Linkoeping University,        Sweden      (Complex polarization propagator (CPP) module)
  Sheela Kirpekar,          Univ. of Southern Denmark,    Denmark     (Mass-velocity & Darwin integrals)
  Erik Kjellgren,           Univ. of Southern Denmark,    Denmark     (MC-srDFT)
  Wim Klopper,              KIT Karlsruhe,                Germany     (R12 code in CC, SIRIUS, and ABACUS modules)
  Stefan Knecht,            ETH Zurich,                   Switzerland (Parallel CI and MCSCF, MC-srDFT)
  Rika Kobayashi,           Australian National Univ.,    Australia   (DIIS in CC, London in MCSCF)
  Henrik Koch,              NTNU,                         Norway      (CC module, Cholesky decomposition)
  Jacob Kongsted,           Univ. of Southern Denmark,    Denmark     (Polarizable embedding, polarizable density embedding, QM/MM)
  Andrea Ligabue,           University of Modena,         Italy       (CTOCD, AOSOPPA)
  Nanna H. List             Univ. of Southern Denmark,    Denmark     (Polarizable embedding)
  Ola B. Lutnaes,           University of Oslo,           Norway      (DFT Hessian)
  Juan I. Melo,             University of Buenos Aires,   Argentina   (LRESC, Relativistic Effects on NMR Shieldings)
  Kurt V. Mikkelsen,        University of Copenhagen,     Denmark     (MC-SCRF and QM/MM)
  Rolf H. Myhre,            NTNU,                         Norway      (Subsystems and CC3)
  Christian Neiss,          Univ. Erlangen-Nuernberg,     Germany     (CCSD(R12))
  Christian B. Nielsen,     University of Copenhagen,     Denmark     (QM/MM)
  Patrick Norman,           KTH Stockholm,                Sweden      (Cubic response and complex frequency response in RESPONS)
  Jeppe Olsen,              Aarhus University,            Denmark     (SIRIUS CI/density modules)
  Jogvan Magnus H. Olsen,   Aarhus University,            Denmark     (Polarizable embedding and polarizable density embedding)
  Anders Osted,             Copenhagen University,        Denmark     (QM/MM)
  Martin J. Packer,         University of Sheffield,      UK          (SOPPA)
  Filip Pawlowski,          Kazimierz Wielki University,  Poland      (CC3)
  Morten N. Pedersen,       Univ. of Southern Denmark,    Denmark     (Polarizable embedding)
  Thomas B. Pedersen,       University of Oslo,           Norway      (Cholesky decomposition)
  Patricio F. Provasi,      University of Northeastern,   Argentina   (Analysis of coupling constants in localized orbitals)
  Peter Reinholdt,          Univ. of Southern Denmark,    Denmark     (Polarizable embedding and polarizable density embedding)
  Zilvinas Rinkevicius,     KTH Stockholm,                Sweden      (open-shell DFT, ESR)
  Elias Rudberg,            KTH Stockholm,                Sweden      (DFT grid and basis info)
  Torgeir A. Ruden,         University of Oslo,           Norway      (Numerical derivatives in ABACUS)
  Kenneth Ruud,             UiT The Arctic U. of Norway,  Norway      (DALTON; ABACUS magnetic properties and much more)
  Pawel Salek,              KTH Stockholm,                Sweden      (DALTON; DFT code)
  Claire C. M. Samson       University of Karlsruhe       Germany     (Boys localization, r12 integrals in ERI)
  Alfredo Sanchez de Meras, University of Valencia,       Spain       (CC module, Cholesky decomposition)
  Trond Saue,               Paul Sabatier University,     France      (direct Fock matrix construction)
  Stephan P. A. Sauer,      University of Copenhagen,     Denmark     (SOPPA(CCSD), SOPPA prop., AOSOPPA, vibrational g-factors)
  Bernd Schimmelpfennig,    Forschungszentrum Karlsruhe,  Germany     (AMFI module)
  Anna K. Schnack-Petersen, University of Copenhagen,     Denmark     (RPA(D) and HRPA(D) properties in AOSOPPA)
  Kristian Sneskov,         Aarhus University,            Denmark     (Polarizable embedding, QM/MM)
  Arnfinn H. Steindal,      UiT The Arctic U. of Norway,  Norway      (parallel QM/MM, polarizable embedding)
  Casper Steinmann,         Aalborg University,           Denmark     (QFIT, polarizable embedding)
  K. O. Sylvester-Hvid,     University of Copenhagen,     Denmark     (MC-SCRF)
  Peter R. Taylor,          VLSCI/Univ. of Melbourne,     Australia   (Symmetry handling ABACUS, integral transformation)
  Andrew M. Teale,          University of Nottingham,     England     (DFT-AC, DFT-D)
  David P. Tew,             University of Bristol,        England     (CCSD(R12))
  Julien Toulouse,          Sorbonne Univ.,               France      (MC-srDFT)
  Olav Vahtras,             KTH Stockholm,                Sweden      (Triplet response, spin-orbit, ESR, TDDFT, open-shell DFT)
  Lucas Visscher,           Vrije Universiteit Amsterdam, Netherlands (Frozen density embedding)
  David J. Wilson,          La Trobe University,          Australia   (DFT Hessian and DFT magnetizabilities)
  Hans Agren,               KTH Stockholm,                Sweden      (SIRIUS module, RESPONS, MC-SCRF solvation)
 --------------------------------------------------------------------------------

     Date and time (Linux)  : Fri Sep 29 07:06:43 2023
     Host name              : sn-mem                                  

 * Work memory size             :    64000000 =  488.28 megabytes.

 * Directories for basis set searches:
   1) /gpfs/projects/rjh/adrian/august_no_symmetry/dalton/hf/PH3/dipole
   2) /gpfs/projects/rjh/adrian/dalton/build/basis


Compilation information
-----------------------

 Who compiled             | ahurtado
 Host                     | sn-mem
 System                   | Linux-3.10.0-1160.24.1.el7.x86_64
 CMake generator          | Unix Makefiles
 Processor                | x86_64
 64-bit integers          | OFF
 MPI                      | ON
 Fortran compiler         | /gpfs/software/intel/oneAPI/2021_4/mpi/2021.4.0/bi
                          | n/mpif90
 Fortran compiler version | GNU Fortran (GCC) 11.2.0
 C compiler               | /gpfs/software/intel/oneAPI/2021_4/mpi/2021.4.0/bi
                          | n/mpicc
 C compiler version       | gcc (GCC) 11.2.0
 C++ compiler             | /gpfs/software/intel/oneAPI/2021_4/mpi/2021.4.0/bi
                          | n/mpicxx
 C++ compiler version     | unknown
 BLAS                     | /gpfs/software/intel/oneAPI/2021_4/mkl/2021.4.0/li
                          | b/intel64/libmkl_gf_lp64.so;/gpfs/software/intel/o
                          | neAPI/2021_4/mkl/2021.4.0/lib/intel64/libmkl_seque
                          | ntial.so;/gpfs/software/intel/oneAPI/2021_4/mkl/20
                          | 21.4.0/lib/intel64/libmkl_core.so;/usr/lib64/libpt
                          | hread.so;/usr/lib64/libm.so
 LAPACK                   | /gpfs/software/intel/oneAPI/2021_4/mkl/2021.4.0/li
                          | b/intel64/libmkl_lapack95_lp64.a;/gpfs/software/in
                          | tel/oneAPI/2021_4/mkl/2021.4.0/lib/intel64/libmkl_
                          | gf_lp64.so
 Static linking           | OFF
 Last Git revision        | 66052b3af5ea7225e31178bf9a8b031913c72190
 Git branch               | (HEAD detached at Dalton2020.0)
 Configuration time       | 2023-01-11 13:33:37.731835

 * MPI parallel run using 5 processes.


   Content of the .dal input file
 ----------------------------------

**DALTON INPUT
.RUN RESPONSE
.DIRECT
**WAVE FUNCTIONS
.HF
**PROPERTIES
**RESPONSE
*QUADRA
.DIPLEN
.FREQUENCIES
5
0.0 0.0164705 0.032941 0.0494115 0.065882
**END OF DALTON INPUT


   Content of the .mol file
 ----------------------------

BASIS
d-aug-cc-pVTZ
blah
blah
Atomtype=2 Angstrom Charge=0 Nosymmmetry
Charge=15 Atoms=1
P_a 0.000000000000 0.000000000000 0.000000000000
Charge=1 Atoms=3
H_a 0.000000000000 -1.193199998467 -0.771699999462
H_b 1.033300002415 0.596600001880 -0.771699999462
H_c -1.033300002415 0.596600001880 -0.771699999462


       *******************************************************************
       *********** Output from DALTON general input processing ***********
       *******************************************************************

 --------------------------------------------------------------------------------
   Overall default print level:    0
   Print level for DALTON.STAT:    1

    Parallel calculation using MPI
    AO-direct calculation (in sections where implemented)
    HERMIT 1- and 2-electron integral sections will be executed
    "Old" integral transformation used (limited to max 255 basis functions)
    Wave function sections will be executed (SIRIUS module)
    Dynamic molecular response properties section will be executed (RESPONSE module)
 --------------------------------------------------------------------------------


   ****************************************************************************
   *************** Output of molecule and basis set information ***************
   ****************************************************************************


    The two title cards from your ".mol" input:
    ------------------------------------------------------------------------
 1: blah                                                                    
 2: blah                                                                    
    ------------------------------------------------------------------------

  Coordinates are entered in Angstrom and converted to atomic units.
          - Conversion factor : 1 bohr = 0.52917721 A

  Atomic type no.    1
  --------------------
  Nuclear charge:  15.00000
  Number of symmetry independent centers:    1
  Number of basis sets to read;    2
  Basis set file used for this atomic type with Z =  15 :
     "/gpfs/projects/rjh/adrian/dalton/build/basis/aug-cc-pVTZ"

  Atomic type no.    2
  --------------------
  Nuclear charge:   1.00000
  Number of symmetry independent centers:    3
  Number of basis sets to read;    2
  Basis set file used for this atomic type with Z =   1 :
     "/gpfs/projects/rjh/adrian/dalton/build/basis/aug-cc-pVTZ"


                         SYMGRP: Point group information
                         -------------------------------

@    Point group: C1 


                                 Isotopic Masses
                                 ---------------

                           P_a        30.973763
                           H_a         1.007825
                           H_b         1.007825
                           H_c         1.007825

                       Total mass:    33.997238 amu
                       Natural abundance:  99.955 %

 Center-of-mass coordinates (a.u.):    0.000000    0.000000   -0.129691
 Center-of-mass coordinates (Angs):    0.000000    0.000000   -0.068630


  Atoms and basis sets
  --------------------

  Number of atom types :    2
  Total number of atoms:    4

  Basis set used is "d-aug-cc-pVTZ" from the basis set library.

  label    atoms   charge   prim   cont     basis
  ----------------------------------------------------------------------
  P_          1   15.0000    91    66      [17s11p4d3f|7s6p4d3f]                              
  H_          3    1.0000    34    32      [7s4p3d|5s4p3d]                                    
  ----------------------------------------------------------------------
  total:      4   18.0000   193   162
  ----------------------------------------------------------------------
  Spherical harmonic basis used.

  Threshold for neglecting AO integrals:  1.00D-12


  Cartesian Coordinates (a.u.)
  ----------------------------

  Total number of coordinates:   12
  P_a     :     1  x   0.0000000000    2  y   0.0000000000    3  z   0.0000000000
  H_a     :     4  x   0.0000000000    5  y  -2.2548212094    6  z  -1.4583016496
  H_b     :     7  x   1.9526540095    8  y   1.1274106097    9  z  -1.4583016496
  H_c     :    10  x  -1.9526540095   11  y   1.1274106097   12  z  -1.4583016496


   Interatomic separations (in Angstrom):
   --------------------------------------

            P_a         H_a         H_b         H_c   
            ------      ------      ------      ------
 P_a   :    0.000000
 H_a   :    1.421002    0.000000
 H_b   :    1.420972    2.066662    0.000000
 H_c   :    1.420972    2.066662    2.066600    0.000000


  Max    interatomic separation is    2.0667 Angstrom (    3.9054 Bohr)
  between atoms    3 and    2, "H_b   " and "H_a   ".

  Min HX interatomic separation is    1.4210 Angstrom (    2.6852 Bohr)


  Bond distances (Angstrom):
  --------------------------

                  atom 1     atom 2       distance
                  ------     ------       --------
  bond distance:  H_a        P_a          1.421002
  bond distance:  H_b        P_a          1.420972
  bond distance:  H_c        P_a          1.420972


  Bond angles (degrees):
  ----------------------

                  atom 1     atom 2     atom 3         angle
                  ------     ------     ------         -----
  bond angle:     H_a        P_a        H_b           93.303
  bond angle:     H_a        P_a        H_c           93.303
  bond angle:     H_b        P_a        H_c           93.301




 Principal moments of inertia (u*A**2) and principal axes
 --------------------------------------------------------

   IA       3.792542          0.000000    1.000000   -0.000000
   IB       3.792715          1.000000    0.000000    0.000000
   IC       4.304428          0.000000    0.000000    1.000000


 Rotational constants
 --------------------

               A                   B                   C

         133255.9944         133249.9191         117409.1033 MHz
            4.444942            4.444739            3.916346 cm-1


@  Nuclear repulsion energy :   17.526280706353 Hartree


                     .---------------------------------------.
                     | Starting in Integral Section (HERMIT) |
                     `---------------------------------------'



 ***************************************************************************************
 ****************** Output from **INTEGRALS input processing (HERMIT) ******************
 ***************************************************************************************


 - Using defaults, no **INTEGRALS input found

 Default print level:        1

 Calculation of one-electron Hamiltonian integrals.

 Center of mass  (bohr):      0.000000000000      0.000000000297     -0.129691081968
 Operator center (bohr):      0.000000000000      0.000000000000      0.000000000000
 Gauge origin    (bohr):      0.000000000000      0.000000000000      0.000000000000
 Dipole origin   (bohr):      0.000000000000      0.000000000000      0.000000000000


     ************************************************************************
     ************************** Output from HERINT **************************
     ************************************************************************



                      Nuclear contribution to dipole moments
                      --------------------------------------

                 au               Debye          C m (/(10**-30)

      x      0.00000000         0.00000000         0.00000000
      y      0.00000001         0.00000003         0.00000008
      z     -4.37490495       -11.11989850       -37.09198882


  Time used in GABGEN     is       0.17 seconds
  Total CPU  time used in HERMIT:   0.38 seconds
  Total wall time used in HERMIT:   0.38 seconds


                        .----------------------------------.
                        | End of Integral Section (HERMIT) |
                        `----------------------------------'



                   .--------------------------------------------.
                   | Starting in Wave Function Section (SIRIUS) |
                   `--------------------------------------------'


 *** Output from Huckel module :

     Using EWMO model:          T
     Using EHT  model:          F
     Number of Huckel orbitals each symmetry:   17

 EWMO - Energy Weighted Maximum Overlap - is a Huckel type method,
        which normally is better than Extended Huckel Theory.
 Reference: Linderberg and Ohrn, Propagators in Quantum Chemistry (Wiley, 1973)

 Huckel EWMO eigenvalues for symmetry :  1
          -79.989138      -7.539621      -5.419453      -5.419453      -5.419331
           -1.162139      -0.617917      -0.617908      -0.435032      -0.171097
           -0.171096      -0.123482      -0.055556      -0.055556      -0.055288
           -0.028356      -0.028355

 **********************************************************************
 *SIRIUS* a direct, restricted step, second order MCSCF program       *
 **********************************************************************

 
     Date and time (Linux)  : Fri Sep 29 07:06:44 2023
     Host name              : sn-mem                                  

 Title lines from ".mol" input file:
     blah                                                                    
     blah                                                                    

 Print level on unit LUPRI =   2 is   0
 Print level on unit LUW4  =   2 is   5

@    Restricted, closed shell Hartree-Fock calculation.

@    Time-dependent Hartree-Fock calculation (random phase approximation).
 Fock matrices are calculated directly and in parallel without use of integrals on disk.

 Initial molecular orbitals are obtained according to
 ".MOSTART EWMO  " input option

     Wave function specification
     ============================
@    Wave function type        --- HF ---
@    Number of closed shell electrons          18
@    Number of electrons in active shells       0
@    Total charge of the molecule               0

@    Spin multiplicity and 2 M_S                1         0
@    Total number of symmetries                 1 (point group: C1 )
@    Reference state symmetry                   1 (irrep name : A  )

     Orbital specifications
     ======================
@    Abelian symmetry species          All |    1
@                                          |  A  
                                       --- |  ---
@    Occupied SCF orbitals               9 |    9
@    Secondary orbitals                153 |  153
@    Total number of orbitals          162 |  162
@    Number of basis functions         162 |  162

     Optimization information
     ========================
@    Number of configurations                 1
@    Number of orbital rotations           1377
     ------------------------------------------
@    Total number of variables             1378

     Maximum number of Fock   iterations      0
     Maximum number of DIIS   iterations     60
     Maximum number of QC-SCF iterations     60
     Threshold for SCF convergence     1.00D-05


 ***********************************************
 ***** DIIS acceleration of SCF iterations *****
 ***********************************************

 C1-DIIS algorithm; max error vectors =    8

 Iter      Total energy        Error norm    Delta(E)  DIIS dim.
 -----------------------------------------------------------------------------
   1  Screening settings (-IFTHRS, JTDIIS, DIFDEN, times)   -8    1    T  2.09D+00  2.09D+00
@  1    -342.354542359        1.18376D+00   -3.42D+02    1
      Virial theorem: -V/T =      2.002675
@    MULPOP   P_a     0.56; H_a    -0.19; H_b    -0.19; H_c    -0.19; 
   1  Level shift: doubly occupied orbital energies shifted by -2.00D-01
 -----------------------------------------------------------------------------
   2  Screening settings (-IFTHRS, JTDIIS, DIFDEN, times)   -8    2    T  2.02D+00  2.03D+00
@  2    -342.479787854        2.61961D-01   -1.25D-01    2
      Virial theorem: -V/T =      1.999081
@    MULPOP   P_a    -0.02; H_a     0.01; H_b     0.01; H_c     0.01; 
   2  Level shift: doubly occupied orbital energies shifted by -5.00D-02
 -----------------------------------------------------------------------------
   3  Screening settings (-IFTHRS, JTDIIS, DIFDEN, times)  -12    3    F  2.01D+00  2.02D+00
@  3    -342.486627858        7.72733D-02   -6.84D-03    3
      Virial theorem: -V/T =      2.000271
@    MULPOP   P_a    -0.18; H_a     0.06; H_b     0.06; H_c     0.06; 
   3  Level shift: doubly occupied orbital energies shifted by -2.50D-02
 -----------------------------------------------------------------------------
   4  Screening settings (-IFTHRS, JTDIIS, DIFDEN, times)  -12    4    T  2.13D+00  2.13D+00
@  4    -342.487564021        2.08582D-02   -9.36D-04    4
      Virial theorem: -V/T =      2.000116
@    MULPOP   P_a    -0.23; H_a     0.08; H_b     0.08; H_c     0.08; 
   4  Level shift: doubly occupied orbital energies shifted by -1.25D-02
 -----------------------------------------------------------------------------
   5  Screening settings (-IFTHRS, JTDIIS, DIFDEN, times)  -12    5    T  1.96D+00  1.96D+00
@  5    -342.487675698        4.80296D-03   -1.12D-04    5
      Virial theorem: -V/T =      2.000164
@    MULPOP   P_a    -0.24; H_a     0.08; H_b     0.08; H_c     0.08; 
 -----------------------------------------------------------------------------
   6  Screening settings (-IFTHRS, JTDIIS, DIFDEN, times)  -12    6    T  2.02D+00  2.03D+00
@  6    -342.487683268        6.68564D-04   -7.57D-06    6
      Virial theorem: -V/T =      2.000165
@    MULPOP   P_a    -0.24; H_a     0.08; H_b     0.08; H_c     0.08; 
 -----------------------------------------------------------------------------
   7  Screening settings (-IFTHRS, JTDIIS, DIFDEN, times)  -12    7    T  1.96D+00  1.96D+00
@  7    -342.487683411        1.29514D-04   -1.42D-07    7
      Virial theorem: -V/T =      2.000166
@    MULPOP   P_a    -0.24; H_a     0.08; H_b     0.08; H_c     0.08; 
 -----------------------------------------------------------------------------
   8  Screening settings (-IFTHRS, JTDIIS, DIFDEN, times)  -12    8    T  1.93D+00  1.93D+00
@  8    -342.487683415        2.75546D-05   -4.16D-09    8
      Virial theorem: -V/T =      2.000166
@    MULPOP   P_a    -0.24; H_a     0.08; H_b     0.08; H_c     0.08; 
 -----------------------------------------------------------------------------
   9  Screening settings (-IFTHRS, JTDIIS, DIFDEN, times)  -12    9    T  1.92D+00  1.92D+00
@  9    -342.487683415        3.86363D-06   -1.57D-10    8

@ *** DIIS converged in   9 iterations !
@     Converged SCF energy, gradient:   -342.487683414893    3.86D-06
    - total time used in SIRFCK :              0.00 seconds


 *** SCF orbital energy analysis ***

 Only the 20 lowest virtual orbital energies printed in each symmetry.

 Number of electrons :   18
 Orbital occupations :    9

 Sym       Hartree-Fock orbital energies

1 A     -79.94698449    -7.48947922    -5.38287684    -5.38287672    -5.38196757
         -0.85446666    -0.52008934    -0.52008828    -0.38866524     0.00739138
          0.01165683     0.01165686     0.02040582     0.03290591     0.03290597
          0.03533297     0.06426858     0.06426881     0.06746905     0.06746919
          0.06763184     0.07670224     0.08535433     0.08535456     0.09715753
          0.09945033     0.10299264     0.10299276     0.10509630

    E(LUMO) :     0.00739138 au (symmetry 1)
  - E(HOMO) :    -0.38866524 au (symmetry 1)
  ------------------------------------------
    gap     :     0.39605662 au

 --- Writing SIRIFC interface file

 CPU and wall time for SCF :      18.427      18.486


                       .-----------------------------------.
                       | --- Final results from SIRIUS --- |
                       `-----------------------------------'


@    Spin multiplicity:           1
@    Spatial symmetry:            1 ( irrep  A   in C1  )
@    Total charge of molecule:    0

@    Final HF energy:            -342.487683414893                 
@    Nuclear repulsion:            17.526280706353
@    Electronic energy:          -360.013964121246

@    Final gradient norm:           0.000003863633

 
     Date and time (Linux)  : Fri Sep 29 07:07:02 2023
     Host name              : sn-mem                                  

File label for MO orbitals:  29Sep23   FOCKDIIS

 (Only coefficients > 0.0100 are printed.)

 Molecular orbitals for symmetry species 1  (A  )
 ------------------------------------------------

    Orbital         1        2        3        4        5        6        7
   1 P_a :1s    -1.0001  -0.0005  -0.0000   0.0000  -0.0005   0.0006  -0.0000
   2 P_a :1s    -0.0004   0.9970  -0.0000  -0.0000  -0.0078  -0.0058  -0.0000
   3 P_a :1s    -0.0006  -0.0041  -0.0000   0.0000  -0.0016   0.8051   0.0000
   5 P_a :1s     0.0012   0.0098  -0.0000  -0.0000  -0.0051  -0.1152  -0.0000
   6 P_a :1s     0.0003  -0.0004  -0.0000  -0.0000   0.0054  -0.1073  -0.0000
   7 P_a :1s     0.0001  -0.0004  -0.0000   0.0000   0.0023  -0.0435  -0.0000
   8 P_a :2px   -0.0000  -0.0000  -0.9977   0.0000   0.0000   0.0000  -0.0000
   9 P_a :2py    0.0000  -0.0000   0.0000   0.9977  -0.0001  -0.0000   0.0180
  10 P_a :2pz    0.0002  -0.0042   0.0000  -0.0001  -0.9993   0.0161  -0.0000
  12 P_a :2py    0.0000   0.0000  -0.0000  -0.0067   0.0000   0.0000  -0.6397
  13 P_a :2pz    0.0003   0.0022   0.0000   0.0000   0.0045  -0.1243   0.0000
  18 P_a :2py    0.0000   0.0000   0.0000   0.0043  -0.0000  -0.0000   0.0320
  19 P_a :2pz   -0.0005  -0.0033   0.0000   0.0000  -0.0014   0.0796  -0.0000
  21 P_a :2py   -0.0000  -0.0000   0.0000  -0.0013   0.0000  -0.0000   0.0423
  22 P_a :2pz    0.0000   0.0004   0.0000   0.0000   0.0006   0.0263  -0.0000
  27 P_a :3d1-  -0.0000   0.0000   0.0000  -0.0011   0.0000  -0.0000   0.0562
  30 P_a :3d2+   0.0000  -0.0000   0.0000   0.0001  -0.0000   0.0000  -0.0431
  32 P_a :3d1-  -0.0000   0.0000  -0.0000   0.0034  -0.0000  -0.0000   0.0734
  35 P_a :3d2+   0.0000   0.0000   0.0000  -0.0003  -0.0000   0.0000  -0.0538
  37 P_a :3d1-  -0.0000   0.0000   0.0000  -0.0015   0.0000  -0.0000   0.0345
  51 P_a :4f2+  -0.0000  -0.0000  -0.0000  -0.0001   0.0000  -0.0000   0.0195
  67 H_a :1s     0.0000   0.0009  -0.0000  -0.0020   0.0012   0.3262   0.6581
  68 H_a :1s     0.0000   0.0004   0.0000  -0.0025   0.0005  -0.0419  -0.1039
  69 H_a :1s    -0.0003  -0.0028  -0.0000   0.0039  -0.0006  -0.0703  -0.1889
  70 H_a :1s    -0.0001   0.0002   0.0000  -0.0188  -0.0016   0.0326   0.2167
  71 H_a :1s    -0.0000   0.0000  -0.0000  -0.0001  -0.0001   0.0012   0.0106
  76 H_a :2py    0.0000   0.0003   0.0000  -0.0008   0.0008   0.0118  -0.0055
  79 H_a :2py   -0.0001  -0.0010  -0.0000  -0.0002   0.0010  -0.0026  -0.0153
  80 H_a :2pz   -0.0000  -0.0005   0.0000   0.0005   0.0000  -0.0025  -0.0102
  82 H_a :2py   -0.0000  -0.0001   0.0000  -0.0051   0.0005   0.0019   0.0383
  83 H_a :2pz   -0.0000  -0.0001   0.0000  -0.0011  -0.0006   0.0001   0.0127
  99 H_b :1s     0.0000   0.0009  -0.0017   0.0010   0.0012   0.3263  -0.3291
 100 H_b :1s     0.0000   0.0004  -0.0022   0.0012   0.0005  -0.0419   0.0520
 101 H_b :1s    -0.0003  -0.0028   0.0034  -0.0020  -0.0006  -0.0703   0.0945
 102 H_b :1s    -0.0001   0.0002  -0.0163   0.0094  -0.0016   0.0326  -0.1083
 107 H_b :2px   -0.0000  -0.0002   0.0004  -0.0007  -0.0007  -0.0102   0.0008
 110 H_b :2px    0.0001   0.0008  -0.0000  -0.0003  -0.0008   0.0023  -0.0147
 111 H_b :2py    0.0000   0.0005   0.0003   0.0004  -0.0005   0.0013   0.0101
 113 H_b :2px    0.0000   0.0001   0.0042  -0.0016  -0.0004  -0.0016   0.0105
 114 H_b :2py    0.0000   0.0001   0.0016  -0.0024  -0.0002  -0.0009   0.0200
 131 H_c :1s     0.0000   0.0009   0.0017   0.0010   0.0012   0.3263  -0.3291
 132 H_c :1s     0.0000   0.0004   0.0022   0.0012   0.0005  -0.0419   0.0520
 133 H_c :1s    -0.0003  -0.0028  -0.0034  -0.0020  -0.0006  -0.0703   0.0945
 134 H_c :1s    -0.0001   0.0002   0.0163   0.0094  -0.0016   0.0326  -0.1083
 139 H_c :2px    0.0000   0.0002   0.0004   0.0007   0.0007   0.0102  -0.0008
 142 H_c :2px   -0.0001  -0.0008  -0.0000   0.0003   0.0008  -0.0023   0.0147
 143 H_c :2py    0.0000   0.0005  -0.0003   0.0004  -0.0005   0.0013   0.0101
 145 H_c :2px   -0.0000  -0.0001   0.0042   0.0016   0.0004   0.0016  -0.0105
 146 H_c :2py    0.0000   0.0001  -0.0016  -0.0024  -0.0002  -0.0009   0.0200

    Orbital         8        9       10       11       12       13       14
   3 P_a :1s     0.0000  -0.4240   0.0481   0.0000   0.0000   0.0100  -0.0000
   5 P_a :1s     0.0000  -0.1515   0.6405   0.0000  -0.0000  -0.7385   0.0000
   6 P_a :1s     0.0000  -0.0250   2.2733   0.0000   0.0000  -0.4705  -0.0000
   7 P_a :1s     0.0000   0.0091   3.8179   0.0000   0.0000   2.2238  -0.0000
   8 P_a :2px   -0.0180   0.0000  -0.0000  -0.0000   0.0007   0.0000   0.0195
  10 P_a :2pz   -0.0000   0.0214  -0.0051   0.0000  -0.0000   0.0101  -0.0000
  11 P_a :2px    0.6397  -0.0000   0.0000  -0.0000  -0.0161   0.0000   0.0947
  12 P_a :2py    0.0000  -0.0000  -0.0000   0.0161  -0.0000  -0.0000   0.0000
  13 P_a :2pz   -0.0000  -0.7448  -0.0452   0.0000  -0.0000   0.0860  -0.0000
  14 P_a :2px    0.0013  -0.0000  -0.0000   0.0000  -0.0006  -0.0000  -0.0143
  16 P_a :2pz    0.0000  -0.0136   0.0041  -0.0000   0.0000  -0.0073   0.0000
  17 P_a :2px   -0.0320   0.0000   0.0000  -0.0000  -0.1567  -0.0000   0.0050
  18 P_a :2py    0.0000  -0.0000   0.0000   0.1567  -0.0000  -0.0000   0.0000
  19 P_a :2pz   -0.0000  -0.0085  -0.3441   0.0000  -0.0000  -0.0602   0.0000
  20 P_a :2px   -0.0423  -0.0000   0.0000   0.0000  -0.9410   0.0000  -4.1032
  21 P_a :2py   -0.0000  -0.0000  -0.0000   0.9410   0.0000  -0.0000  -0.0000
  22 P_a :2pz    0.0000  -0.0366  -0.2475   0.0000  -0.0000  -2.3910   0.0000
  23 P_a :2px   -0.0076  -0.0000   0.0000   0.0000  -1.7562   0.0000  -4.7864
  24 P_a :2py    0.0000   0.0000   0.0000   1.7562   0.0000   0.0000  -0.0000
  25 P_a :2pz   -0.0000   0.0006  -0.1726   0.0000  -0.0000  -1.8312   0.0000
  26 P_a :3d2-   0.0431  -0.0000  -0.0000   0.0000  -0.0018   0.0000   0.0056
  29 P_a :3d1+  -0.0562  -0.0000   0.0000   0.0000   0.0016  -0.0000  -0.0090
  31 P_a :3d2-   0.0538   0.0000  -0.0000  -0.0000   0.0045   0.0000   0.0383
  33 P_a :3d0    0.0000   0.0037  -0.0020  -0.0000  -0.0000   0.0253  -0.0000
  34 P_a :3d1+  -0.0734  -0.0000  -0.0000   0.0000   0.0054  -0.0000  -0.0166
  36 P_a :3d2-   0.0031   0.0000  -0.0000   0.0000  -0.0041   0.0000   0.0337
  37 P_a :3d1-  -0.0000   0.0000  -0.0000  -0.1050   0.0000   0.0000   0.0000
  38 P_a :3d0   -0.0000   0.0213  -0.0028  -0.0000   0.0000   0.1916  -0.0000
  39 P_a :3d1+  -0.0345  -0.0000   0.0000   0.0000   0.1050  -0.0000   0.1998
  41 P_a :3d2-  -0.0091   0.0000   0.0000   0.0000  -0.0961   0.0000  -0.3694
  42 P_a :3d1-  -0.0000  -0.0000  -0.0000  -0.1922  -0.0000  -0.0000   0.0000
  43 P_a :3d0   -0.0000  -0.0009  -0.1428  -0.0000   0.0000   0.7802  -0.0000
  44 P_a :3d1+   0.0043   0.0000  -0.0000  -0.0000   0.1922  -0.0000   0.8912
  45 P_a :3d2+  -0.0000  -0.0000  -0.0000   0.0962   0.0000   0.0000  -0.0000
  47 P_a :4f2-  -0.0195  -0.0000  -0.0000   0.0000   0.0003  -0.0000  -0.0051
  60 P_a :4f3-   0.0000   0.0016   0.0110   0.0000   0.0000   0.0355  -0.0000
  61 P_a :4f2-   0.0005  -0.0000  -0.0000  -0.0000   0.0104  -0.0000   0.0123
  62 P_a :4f1-   0.0000   0.0000   0.0000   0.0582  -0.0000   0.0000  -0.0000
  63 P_a :4f0    0.0000  -0.0035   0.0257   0.0000  -0.0000  -0.1053   0.0000
  64 P_a :4f1+   0.0048   0.0000  -0.0000  -0.0000  -0.0582   0.0000  -0.0933
  65 P_a :4f2+   0.0000  -0.0000   0.0000  -0.0104   0.0000  -0.0000   0.0000
  67 H_a :1s    -0.0000   0.2323   0.0026  -0.0121   0.0000  -0.0147  -0.0000
  68 H_a :1s     0.0000  -0.0159  -0.0069  -0.0060  -0.0000   0.0090  -0.0000
  69 H_a :1s    -0.0000  -0.0211  -0.4125   0.1803  -0.0000   0.0486   0.0000
  70 H_a :1s    -0.0000  -0.0019  -1.4799   2.7202   0.0000  -0.6667  -0.0000
  71 H_a :1s    -0.0000  -0.0003  -0.7127   8.6092  -0.0000  -0.1332  -0.0000
  78 H_a :2px   -0.0186   0.0000  -0.0000  -0.0000   0.0693   0.0000   0.1838
  79 H_a :2py   -0.0000  -0.0049  -0.1025   0.0237  -0.0000   0.0513   0.0000
  80 H_a :2pz   -0.0000   0.0115  -0.0584   0.0215  -0.0000   0.1807   0.0000
  81 H_a :2px   -0.0140   0.0000  -0.0000   0.0000   0.1878   0.0000   0.6382
  82 H_a :2py   -0.0000   0.0008  -0.1475   0.3141   0.0000   0.0681   0.0000
  83 H_a :2pz   -0.0000   0.0036  -0.2626   0.3928   0.0000   1.0130   0.0000
  89 H_a :3d2-  -0.0024   0.0000  -0.0000  -0.0000   0.0040   0.0000   0.0185
  90 H_a :3d1-  -0.0000  -0.0006  -0.0039   0.0002  -0.0000   0.0147   0.0000
  94 H_a :3d2-  -0.0046   0.0000  -0.0000   0.0000   0.0592  -0.0000   0.0922
  95 H_a :3d1-  -0.0000   0.0052  -0.0149   0.0702  -0.0000   0.1175   0.0000
  96 H_a :3d0    0.0000   0.0012   0.0103   0.0172  -0.0000  -0.0471   0.0000
  97 H_a :3d1+  -0.0005   0.0000  -0.0000  -0.0000  -0.0341   0.0000  -0.0375
  98 H_a :3d2+   0.0000   0.0017   0.0063  -0.0260   0.0000  -0.0091  -0.0000
  99 H_b :1s     0.5700   0.2323   0.0026   0.0061  -0.0105  -0.0147   0.0390
 100 H_b :1s    -0.0900  -0.0159  -0.0069   0.0030  -0.0052   0.0090   0.0013
 101 H_b :1s    -0.1636  -0.0211  -0.4126  -0.0902   0.1562   0.0487  -0.1553
 102 H_b :1s     0.1876  -0.0019  -1.4798  -1.3601   2.3555  -0.6663   8.2704
 103 H_b :1s     0.0092  -0.0003  -0.7127  -4.3046   7.4560  -0.1333   9.4620
 110 H_b :2px    0.0068   0.0043   0.0888   0.0403  -0.0005  -0.0445   0.2905
 111 H_b :2py    0.0147   0.0025   0.0513  -0.0460  -0.0403  -0.0257   0.0616
 112 H_b :2pz   -0.0088   0.0115  -0.0584  -0.0107   0.0186   0.1807  -0.1380
 113 H_b :2px   -0.0322  -0.0007   0.1277   0.2173  -0.1885  -0.0590  -0.0948
 114 H_b :2py   -0.0105  -0.0004   0.0737  -0.0623  -0.2173  -0.0341  -0.4233
 115 H_b :2pz    0.0110   0.0036  -0.2626  -0.1964   0.3401   1.0131   0.6158
 121 H_b :3d2-  -0.0027  -0.0016  -0.0033   0.0025  -0.0003   0.0023  -0.0121
 124 H_b :3d1+   0.0030   0.0005   0.0034   0.0015   0.0007  -0.0127   0.0150
 125 H_b :3d2+  -0.0002  -0.0009  -0.0019  -0.0026  -0.0025   0.0013  -0.0176
 126 H_b :3d2-   0.0014  -0.0015  -0.0054   0.0144   0.0343   0.0079  -0.0553
 127 H_b :3d1-   0.0021  -0.0026   0.0074   0.0431  -0.0156  -0.0587   0.0192
 128 H_b :3d0   -0.0016   0.0012   0.0103  -0.0086   0.0149  -0.0471   0.0456
 129 H_b :3d1+   0.0030  -0.0045   0.0129   0.0157  -0.0612  -0.1017  -0.0042
 130 H_b :3d2+   0.0035  -0.0008  -0.0031  -0.0509  -0.0144   0.0045  -0.0851
 131 H_c :1s    -0.5700   0.2323   0.0026   0.0061   0.0105  -0.0147  -0.0390
 132 H_c :1s     0.0900  -0.0159  -0.0069   0.0030   0.0052   0.0090  -0.0013
 133 H_c :1s     0.1636  -0.0211  -0.4126  -0.0902  -0.1562   0.0487   0.1553
 134 H_c :1s    -0.1876  -0.0019  -1.4798  -1.3601  -2.3555  -0.6663  -8.2704
 135 H_c :1s    -0.0092  -0.0003  -0.7127  -4.3046  -7.4560  -0.1333  -9.4620
 142 H_c :2px    0.0068  -0.0043  -0.0888  -0.0403  -0.0005   0.0445   0.2905
 143 H_c :2py   -0.0147   0.0025   0.0513  -0.0460   0.0403  -0.0257  -0.0616
 144 H_c :2pz    0.0088   0.0115  -0.0584  -0.0107  -0.0186   0.1807   0.1380
 145 H_c :2px   -0.0322   0.0007  -0.1277  -0.2173  -0.1885   0.0590  -0.0948
 146 H_c :2py    0.0105  -0.0004   0.0737  -0.0623   0.2173  -0.0341   0.4233
 147 H_c :2pz   -0.0110   0.0036  -0.2626  -0.1964  -0.3401   1.0131  -0.6158
 153 H_c :3d2-  -0.0027   0.0016   0.0033  -0.0025  -0.0003  -0.0023  -0.0121
 156 H_c :3d1+   0.0030  -0.0005  -0.0034  -0.0015   0.0007   0.0127   0.0150
 157 H_c :3d2+   0.0002  -0.0009  -0.0019  -0.0026   0.0025   0.0013   0.0176
 158 H_c :3d2-   0.0014   0.0015   0.0054  -0.0144   0.0343  -0.0079  -0.0553
 159 H_c :3d1-  -0.0021  -0.0026   0.0074   0.0431   0.0156  -0.0587  -0.0192
 160 H_c :3d0    0.0016   0.0012   0.0103  -0.0086  -0.0149  -0.0471  -0.0456
 161 H_c :3d1+   0.0030   0.0045  -0.0129  -0.0157  -0.0612   0.1017  -0.0042
 162 H_c :3d2+  -0.0035  -0.0008  -0.0031  -0.0509   0.0144   0.0045   0.0851

    Orbital        15       16       17       18       19
   2 P_a :1s     0.0000  -0.0233  -0.0000  -0.0000  -0.0000
   3 P_a :1s     0.0000  -0.1859  -0.0000   0.0000  -0.0000
   4 P_a :1s     0.0000  -0.0214  -0.0000  -0.0000  -0.0000
   5 P_a :1s     0.0000   1.8046  -0.0002   0.0000   0.0000
   6 P_a :1s    -0.0001   6.5572  -0.0002   0.0000   0.0000
   7 P_a :1s    -0.0002  10.8389   0.0001   0.0000   0.0000
   8 P_a :2px   -0.0000   0.0000   0.0000   0.0463  -0.0037
   9 P_a :2py    0.0195   0.0000  -0.0463   0.0000  -0.0000
  10 P_a :2pz   -0.0000  -0.0182   0.0000  -0.0000   0.0000
  11 P_a :2px   -0.0000   0.0000   0.0000   0.0549  -0.0316
  12 P_a :2py    0.0947   0.0000  -0.0549   0.0000  -0.0000
  13 P_a :2pz   -0.0000  -0.0191   0.0000  -0.0000   0.0000
  14 P_a :2px    0.0000  -0.0000  -0.0000  -0.0351   0.0046
  15 P_a :2py   -0.0143  -0.0000   0.0351  -0.0000   0.0000
  16 P_a :2pz    0.0000   0.0141  -0.0000   0.0000  -0.0000
  17 P_a :2px   -0.0000   0.0000   0.0000   0.9789   0.2788
  18 P_a :2py    0.0050   0.0000  -0.9789   0.0000   0.0000
  19 P_a :2pz    0.0000  -0.9836   0.0000  -0.0000  -0.0000
  20 P_a :2px    0.0000   0.0000  -0.0000  -4.6663  -0.5151
  21 P_a :2py   -4.1032  -0.0001   4.6658  -0.0000  -0.0001
  22 P_a :2pz    0.0000  -0.4734  -0.0002  -0.0000  -0.0000
  23 P_a :2px    0.0000   0.0000  -0.0000  -1.3438   0.5039
  24 P_a :2py   -4.7865  -0.0001   1.3438  -0.0000   0.0001
  25 P_a :2pz    0.0000  -0.3509  -0.0000   0.0000  -0.0000
  26 P_a :3d2-  -0.0000   0.0000   0.0000   0.0024   0.0165
  31 P_a :3d2-  -0.0000   0.0000   0.0000   0.0470  -0.0830
  32 P_a :3d1-  -0.0166  -0.0000   0.0266  -0.0000  -0.0000
  34 P_a :3d1+   0.0000  -0.0000  -0.0000  -0.0266  -0.0560
  35 P_a :3d2+   0.0383  -0.0000  -0.0470   0.0000  -0.0000
  36 P_a :3d2-   0.0000   0.0000   0.0000   0.1285  -0.5571
  37 P_a :3d1-   0.1999  -0.0000   0.1043  -0.0000  -0.0000
  38 P_a :3d0    0.0000  -0.0253   0.0000   0.0000  -0.0000
  39 P_a :3d1+  -0.0000  -0.0000  -0.0000  -0.1044  -0.1216
  40 P_a :3d2+   0.0337  -0.0000  -0.1285   0.0000  -0.0001
  41 P_a :3d2-   0.0000   0.0000  -0.0000  -0.2343  -1.8954
  42 P_a :3d1-   0.8912   0.0000  -1.3118   0.0000  -0.0002
  43 P_a :3d0    0.0000  -0.5578   0.0000   0.0000  -0.0000
  44 P_a :3d1+  -0.0000   0.0000   0.0000   1.3117  -1.1428
  45 P_a :3d2+  -0.3694  -0.0000   0.2340  -0.0000  -0.0003
  53 P_a :4f3-  -0.0000   0.0248   0.0000  -0.0000   0.0000
  54 P_a :4f2-   0.0000  -0.0000   0.0000   0.0262   0.0699
  55 P_a :4f1-  -0.0065   0.0000   0.0473  -0.0000   0.0000
  56 P_a :4f0   -0.0000   0.0138  -0.0000  -0.0000   0.0000
  57 P_a :4f1+   0.0000  -0.0000  -0.0000  -0.0473   0.0419
  58 P_a :4f2+  -0.0051  -0.0000  -0.0262   0.0000   0.0000
  60 P_a :4f3-  -0.0000   0.0233  -0.0000   0.0000   0.0000
  61 P_a :4f2-  -0.0000  -0.0000  -0.0000  -0.0142   0.0794
  62 P_a :4f1-  -0.0933   0.0000  -0.1388   0.0000   0.0000
  63 P_a :4f0   -0.0000   0.0890  -0.0000  -0.0000   0.0000
  64 P_a :4f1+  -0.0000  -0.0000   0.0000   0.1389   0.0545
  65 P_a :4f2+   0.0123   0.0000   0.0142  -0.0000   0.0000
  67 H_a :1s    -0.0450   0.0054  -0.0140   0.0000  -0.0000
  68 H_a :1s    -0.0015  -0.0179   0.0773  -0.0000   0.0000
  69 H_a :1s     0.1792  -1.1669  -1.6348   0.0000  -0.0001
  70 H_a :1s    -9.5495  -4.3854   1.3943  -0.0000  -0.0041
  71 H_a :1s   -10.9254  -0.8893   0.2418  -0.0000   0.0002
  75 H_a :2px    0.0000   0.0000   0.0000   0.0046  -0.0224
  76 H_a :2py    0.0074  -0.0333  -0.0193   0.0000   0.0000
  77 H_a :2pz    0.0094  -0.0193  -0.0261   0.0000  -0.0000
  78 H_a :2px   -0.0000   0.0000   0.0000   0.0582  -0.5006
  79 H_a :2py    0.3261  -0.3197  -0.9893   0.0000   0.0000
  80 H_a :2pz    0.1594  -0.1916  -0.6349   0.0000  -0.0000
  81 H_a :2px   -0.0000   0.0000   0.0000   1.1565  -5.4639
  82 H_a :2py   -0.3392  -0.4732  -2.8356   0.0000  -0.0007
  83 H_a :2pz   -0.7110  -0.9161  -1.9203   0.0000  -0.0006
  89 H_a :3d2-  -0.0000   0.0000   0.0000   0.0239  -0.0302
  90 H_a :3d1-   0.0193  -0.0117  -0.0498   0.0000  -0.0000
  92 H_a :3d1+   0.0000   0.0000  -0.0000  -0.0175  -0.0225
  93 H_a :3d2+  -0.0223   0.0113   0.0403  -0.0000  -0.0000
  94 H_a :3d2-  -0.0000   0.0000  -0.0000  -0.1142  -0.4064
  95 H_a :3d1-   0.0069  -0.0531  -0.5777   0.0000  -0.0000
  96 H_a :3d0   -0.0526   0.0405  -0.0156  -0.0000  -0.0000
  97 H_a :3d1+  -0.0000  -0.0000   0.0000   0.1788  -0.2496
  98 H_a :3d2+  -0.1044   0.0186   0.4573  -0.0000  -0.0000
  99 H_b :1s     0.0225   0.0054   0.0070  -0.0122   0.0193
 100 H_b :1s     0.0007  -0.0179  -0.0386   0.0669  -0.0091
 101 H_b :1s    -0.0896  -1.1669   0.8175  -1.4159   0.4111
 102 H_b :1s     4.7749  -4.3848  -0.6972   1.2114  21.7272
 103 H_b :1s     5.4627  -0.8889  -0.1209   0.2094  -0.9304
 107 H_b :2px    0.0022   0.0288  -0.0064   0.0157  -0.0049
 108 H_b :2py    0.0036   0.0166  -0.0083   0.0064   0.0101
 109 H_b :2pz   -0.0047  -0.0193   0.0130  -0.0226   0.0082
 110 H_b :2px    0.0616   0.2769  -0.4032   0.7566   0.0109
 111 H_b :2py    0.2194   0.1599  -0.2910   0.4032   0.2953
 112 H_b :2pz   -0.0797  -0.1916   0.3175  -0.5499   0.2213
 113 H_b :2px   -0.4232   0.4098  -0.7268   2.4152  -4.5426
 114 H_b :2py    0.3939   0.2366  -1.5768   0.7266   0.5312
 115 H_b :2pz    0.3555  -0.9160   0.9603  -1.6626   3.0531
 121 H_b :3d2-  -0.0176  -0.0098   0.0278  -0.0242  -0.0143
 122 H_b :3d1-   0.0063   0.0059   0.0007   0.0292   0.0085
 123 H_b :3d0    0.0039  -0.0001  -0.0035   0.0061   0.0204
 124 H_b :3d1+   0.0075   0.0102  -0.0292   0.0329  -0.0078
 125 H_b :3d2+   0.0083  -0.0056  -0.0079  -0.0278   0.0091
 126 H_b :3d2-  -0.0851  -0.0161   0.1485  -0.3715  -0.1892
 127 H_b :3d1-  -0.0264   0.0265  -0.2785   0.1727   0.0689
 128 H_b :3d0    0.0263   0.0405   0.0078  -0.0135   0.1291
 129 H_b :3d1+   0.0192   0.0460  -0.1727   0.4780  -0.1302
 130 H_b :3d2+   0.0430  -0.0093   0.2000  -0.1485   0.1254
 131 H_c :1s     0.0225   0.0054   0.0070   0.0122  -0.0193
 132 H_c :1s     0.0007  -0.0179  -0.0386  -0.0669   0.0091
 133 H_c :1s    -0.0896  -1.1669   0.8175   1.4159  -0.4110
 134 H_c :1s     4.7749  -4.3848  -0.6972  -1.2114 -21.7231
 135 H_c :1s     5.4627  -0.8889  -0.1209  -0.2094   0.9302
 139 H_c :2px   -0.0022  -0.0288   0.0064   0.0157  -0.0049
 140 H_c :2py    0.0036   0.0166  -0.0083  -0.0064  -0.0101
 141 H_c :2pz   -0.0047  -0.0193   0.0130   0.0226  -0.0082
 142 H_c :2px   -0.0616  -0.2769   0.4032   0.7566   0.0108
 143 H_c :2py    0.2194   0.1599  -0.2910  -0.4032  -0.2954
 144 H_c :2pz   -0.0797  -0.1916   0.3175   0.5499  -0.2212
 145 H_c :2px    0.4232  -0.4098   0.7268   2.4152  -4.5427
 146 H_c :2py    0.3939   0.2366  -1.5768  -0.7266  -0.5329
 147 H_c :2pz    0.3555  -0.9160   0.9603   1.6626  -3.0525
 153 H_c :3d2-   0.0176   0.0098  -0.0278  -0.0242  -0.0144
 154 H_c :3d1-   0.0063   0.0059   0.0007  -0.0292  -0.0085
 155 H_c :3d0    0.0039  -0.0001  -0.0035  -0.0061  -0.0204
 156 H_c :3d1+  -0.0075  -0.0102   0.0292   0.0329  -0.0078
 157 H_c :3d2+   0.0083  -0.0056  -0.0079   0.0278  -0.0091
 158 H_c :3d2-   0.0851   0.0161  -0.1485  -0.3715  -0.1892
 159 H_c :3d1-  -0.0264   0.0265  -0.2785  -0.1727  -0.0689
 160 H_c :3d0    0.0263   0.0405   0.0078   0.0135  -0.1290
 161 H_c :3d1+  -0.0192  -0.0460   0.1727   0.4780  -0.1303
 162 H_c :3d2+   0.0430  -0.0093   0.2000   0.1485  -0.1255

  Total CPU  time used in SIRIUS :  18.78 seconds
  Total wall time used in SIRIUS :  18.84 seconds

 
     Date and time (Linux)  : Fri Sep 29 07:07:02 2023
     Host name              : sn-mem                                  


                     .---------------------------------------.
                     | End of Wave Function Section (SIRIUS) |
                     `---------------------------------------'



                 .------------------------------------------------.
                 | Starting in Dynamic Property Section (RESPONS) |
                 `------------------------------------------------'


 ----------------------------------------------------------------------------------------
  RESPONSE  -  an MCSCF, MC-srDFT, DFT, SOPPA and SOPPA-srDFT response property program
 ----------------------------------------------------------------------------------------


 -------- OUTPUT FROM RESPONSE INPUT PROCESSING --------




 Quadratic Response calculation
 ------------------------------

 First hyperpolarizability calculation : HYPCAL= T

 Spin of operator A , ISPINA=    0
 Spin of operator B , ISPINB=    0
 Spin of operator C , ISPINC=    0

  5 B-frequencies  0.000000D+00  1.647050D-02  3.294100D-02  4.941150D-02  6.588200D-02
  5 C-frequencies  0.000000D+00  1.647050D-02  3.294100D-02  4.941150D-02  6.588200D-02


 Print level                                    : IPRHYP =   2
 Maximum number of iterations in lin.rsp. solver: MAXITL =  60
 Threshold for convergence of linear resp. eq.s : THCLR  = 1.000D-03
 Maximum iterations in optimal orbital algorithm: MAXITO =   5
 Direct one-index transformation                : DIROIT = T

    3 A OPERATORS OF SYMMETRY NO:    1 AND LABELS:

          XDIPLEN 
          YDIPLEN 
          ZDIPLEN 

    3 B OPERATORS OF SYMMETRY NO:    1 AND LABELS:

          XDIPLEN 
          YDIPLEN 
          ZDIPLEN 

    3 C OPERATORS OF SYMMETRY NO:    1 AND LABELS:

          XDIPLEN 
          YDIPLEN 
          ZDIPLEN 


   SCF energy         :     -342.487683414892558
 -- inactive part     :     -360.013964121245749
 -- nuclear repulsion :       17.526280706353216


                     ***************************************
                     *** RHF response calculation (TDHF) ***
                     ***************************************



 Linear response calculations for quadratic response
 - singlet property operator of symmetry    1  ( A  )


 Perturbation symmetry.     KSYMOP:           1
 Perturbation spin symmetry.TRPLET:           F
 Orbital variables.         KZWOPT:        1377
 Configuration variables.   KZCONF:           0
 Total number of variables. KZVAR :        1377


 QRLRVE -- linear response calculation for symmetry  1  ( A  )
 QRLRVE -- operator label : XDIPLEN 
 QRLRVE -- operator spin  :   0
 QRLRVE -- frequencies :  0.000000  0.016470  0.032941  0.049411  0.065882
                          0.082352  0.098823  0.115293  0.131764



 ---  SOLVING SETS OF LINEAR EQUATIONS FOR LINEAR RESPONSE PROPERTIES ---

 Operator symmetry = 1  ( A  ); triplet =   F


 ** RSPCTL MICROITERATION NUMBER    1

       No.  Residual tot.,    conf., and orb.    Bnorm      Frequency 
      ----------------------------------------------------------------
         1    1.78791D+00  0.00D+00  1.79D+00  4.93D+00    0.00000D+00
         2    1.79053D+00  0.00D+00  1.79D+00  4.95D+00    1.64705D-02
         3    1.79844D+00  0.00D+00  1.80D+00  5.00D+00    3.29410D-02
         4    1.81186D+00  0.00D+00  1.81D+00  5.07D+00    4.94115D-02
         5    1.83113D+00  0.00D+00  1.83D+00  5.19D+00    6.58820D-02
         6    1.85680D+00  0.00D+00  1.86D+00  5.34D+00    8.23525D-02
         7    1.88963D+00  0.00D+00  1.89D+00  5.53D+00    9.88230D-02
         8    1.93072D+00  0.00D+00  1.93D+00  5.77D+00    1.15293D-01
         9    1.98158D+00  0.00D+00  1.98D+00  6.07D+00    1.31764D-01

 ** RSPCTL MICROITERATION NUMBER    2

       No.  Residual tot.,    conf., and orb.    Bnorm      Frequency 
      ----------------------------------------------------------------
         1    2.45323D-01  0.00D+00  2.45D-01  5.30D+00    0.00000D+00
         2    2.46020D-01  0.00D+00  2.46D-01  5.32D+00    1.64705D-02
         3    2.48138D-01  0.00D+00  2.48D-01  5.37D+00    3.29410D-02
         4    2.51756D-01  0.00D+00  2.52D-01  5.46D+00    4.94115D-02
         5    2.57013D-01  0.00D+00  2.57D-01  5.59D+00    6.58820D-02
         6    2.64131D-01  0.00D+00  2.64D-01  5.76D+00    8.23525D-02
         7    2.73438D-01  0.00D+00  2.73D-01  5.99D+00    9.88230D-02
         8    2.85422D-01  0.00D+00  2.85D-01  6.27D+00    1.15293D-01
         9    3.00821D-01  0.00D+00  3.01D-01  6.63D+00    1.31764D-01

 ** RSPCTL MICROITERATION NUMBER    3

       No.  Residual tot.,    conf., and orb.    Bnorm      Frequency 
      ----------------------------------------------------------------
         1    2.15974D-02  0.00D+00  2.16D-02  5.31D+00    0.00000D+00
         2    2.17523D-02  0.00D+00  2.18D-02  5.33D+00    1.64705D-02
         3    2.22255D-02  0.00D+00  2.22D-02  5.38D+00    3.29410D-02
         4    2.30439D-02  0.00D+00  2.30D-02  5.47D+00    4.94115D-02
         5    2.42562D-02  0.00D+00  2.43D-02  5.60D+00    6.58820D-02
         6    2.59400D-02  0.00D+00  2.59D-02  5.77D+00    8.23525D-02
         7    2.82150D-02  0.00D+00  2.82D-02  6.00D+00    9.88230D-02
         8    3.12648D-02  0.00D+00  3.13D-02  6.28D+00    1.15293D-01
         9    3.53779D-02  0.00D+00  3.54D-02  6.65D+00    1.31764D-01

 ** RSPCTL MICROITERATION NUMBER    4

       No.  Residual tot.,    conf., and orb.    Bnorm      Frequency 
      ----------------------------------------------------------------
         1    2.50908D-03  0.00D+00  2.51D-03  5.31D+00    0.00000D+00
         2    2.53028D-03  0.00D+00  2.53D-03  5.33D+00    1.64705D-02
         3    2.59573D-03  0.00D+00  2.60D-03  5.38D+00    3.29410D-02
         4    2.71131D-03  0.00D+00  2.71D-03  5.47D+00    4.94115D-02
         5    2.88800D-03  0.00D+00  2.89D-03  5.60D+00    6.58820D-02
         6    3.14395D-03  0.00D+00  3.14D-03  5.77D+00    8.23525D-02
         7    3.50826D-03  0.00D+00  3.51D-03  6.00D+00    9.88230D-02
         8    4.02777D-03  0.00D+00  4.03D-03  6.28D+00    1.15293D-01
         9    4.77962D-03  0.00D+00  4.78D-03  6.65D+00    1.31764D-01

 *** THE REQUESTED    9 SOLUTION VECTORS CONVERGED

 Convergence of RSP solution vectors, threshold = 1.00D-03
 ---------------------------------------------------------------
 (dimension of paired reduced space:   72)
 RSP solution vector no.    1; norm of residual   4.73D-04
 RSP solution vector no.    2; norm of residual   4.75D-04
 RSP solution vector no.    3; norm of residual   4.83D-04
 RSP solution vector no.    4; norm of residual   4.96D-04
 RSP solution vector no.    5; norm of residual   5.16D-04
 RSP solution vector no.    6; norm of residual   5.45D-04
 RSP solution vector no.    7; norm of residual   5.85D-04
 RSP solution vector no.    8; norm of residual   6.41D-04
 RSP solution vector no.    9; norm of residual   7.19D-04

 *** RSPCTL MICROITERATIONS CONVERGED

@ QRLRVE: SINGLET SOLUTION FOR SYMMETRY    1  ( A  )    LABEL   XDIPLEN     FREQUENCY   0.000000D+00

@ QRLRVE:  << XDIPLEN  ; XDIPLEN  >> (   0.00000):     29.5346018365    

@ QRLRVE:  << YDIPLEN  ; XDIPLEN  >> (   0.00000):   -4.091911935671E-04

@ QRLRVE:  << ZDIPLEN  ; XDIPLEN  >> (   0.00000):    1.706469697959E-03

@ QRLRVE: SINGLET SOLUTION FOR SYMMETRY    1  ( A  )    LABEL   XDIPLEN     FREQUENCY   0.164705D-01

@ QRLRVE:  << XDIPLEN  ; XDIPLEN  >> (   0.01647):     29.5814208408    

@ QRLRVE:  << YDIPLEN  ; XDIPLEN  >> (   0.01647):   -4.119851041419E-04

@ QRLRVE:  << ZDIPLEN  ; XDIPLEN  >> (   0.01647):    1.714015592764E-03

@ QRLRVE: SINGLET SOLUTION FOR SYMMETRY    1  ( A  )    LABEL   XDIPLEN     FREQUENCY   0.329410D-01

@ QRLRVE:  << XDIPLEN  ; XDIPLEN  >> (   0.03294):     29.7231004162    

@ QRLRVE:  << YDIPLEN  ; XDIPLEN  >> (   0.03294):   -4.204382485229E-04

@ QRLRVE:  << ZDIPLEN  ; XDIPLEN  >> (   0.03294):    1.736529002824E-03

@ QRLRVE: SINGLET SOLUTION FOR SYMMETRY    1  ( A  )    LABEL   XDIPLEN     FREQUENCY   0.494115D-01

@ QRLRVE:  << XDIPLEN  ; XDIPLEN  >> (   0.04941):     29.9634097702    

@ QRLRVE:  << YDIPLEN  ; XDIPLEN  >> (   0.04941):   -4.347615126129E-04

@ QRLRVE:  << ZDIPLEN  ; XDIPLEN  >> (   0.04941):    1.773576168794E-03

@ QRLRVE: SINGLET SOLUTION FOR SYMMETRY    1  ( A  )    LABEL   XDIPLEN     FREQUENCY   0.658820D-01

@ QRLRVE:  << XDIPLEN  ; XDIPLEN  >> (   0.06588):     30.3089878882    

@ QRLRVE:  << YDIPLEN  ; XDIPLEN  >> (   0.06588):   -4.552923408209E-04

@ QRLRVE:  << ZDIPLEN  ; XDIPLEN  >> (   0.06588):    1.824212393698E-03

@ QRLRVE: SINGLET SOLUTION FOR SYMMETRY    1  ( A  )    LABEL   XDIPLEN     FREQUENCY   0.823525D-01

@ QRLRVE:  << XDIPLEN  ; XDIPLEN  >> (   0.08235):     30.7699501211    

@ QRLRVE:  << YDIPLEN  ; XDIPLEN  >> (   0.08235):   -4.824621604287E-04

@ QRLRVE:  << ZDIPLEN  ; XDIPLEN  >> (   0.08235):    1.886576739690E-03

@ QRLRVE: SINGLET SOLUTION FOR SYMMETRY    1  ( A  )    LABEL   XDIPLEN     FREQUENCY   0.988230D-01

@ QRLRVE:  << XDIPLEN  ; XDIPLEN  >> (   0.09882):     31.3609049049    

@ QRLRVE:  << YDIPLEN  ; XDIPLEN  >> (   0.09882):   -5.167212482049E-04

@ QRLRVE:  << ZDIPLEN  ; XDIPLEN  >> (   0.09882):    1.957148532572E-03

@ QRLRVE: SINGLET SOLUTION FOR SYMMETRY    1  ( A  )    LABEL   XDIPLEN     FREQUENCY   0.115293D+00

@ QRLRVE:  << XDIPLEN  ; XDIPLEN  >> (   0.11529):     32.1026213531    

@ QRLRVE:  << YDIPLEN  ; XDIPLEN  >> (   0.11529):   -5.583719148528E-04

@ QRLRVE:  << ZDIPLEN  ; XDIPLEN  >> (   0.11529):    2.029399547024E-03

@ QRLRVE: SINGLET SOLUTION FOR SYMMETRY    1  ( A  )    LABEL   XDIPLEN     FREQUENCY   0.131764D+00

@ QRLRVE:  << XDIPLEN  ; XDIPLEN  >> (   0.13176):     33.0248109942    

@ QRLRVE:  << YDIPLEN  ; XDIPLEN  >> (   0.13176):   -6.072030868973E-04

@ QRLRVE:  << ZDIPLEN  ; XDIPLEN  >> (   0.13176):    2.091308531987E-03


 QRLRVE -- linear response calculation for symmetry  1  ( A  )
 QRLRVE -- operator label : YDIPLEN 
 QRLRVE -- operator spin  :   0
 QRLRVE -- frequencies :  0.000000  0.016470  0.032941  0.049411  0.065882
                          0.082352  0.098823  0.115293  0.131764



 ---  SOLVING SETS OF LINEAR EQUATIONS FOR LINEAR RESPONSE PROPERTIES ---

 Operator symmetry = 1  ( A  ); triplet =   F


 ** RSPCTL MICROITERATION NUMBER    1

       No.  Residual tot.,    conf., and orb.    Bnorm      Frequency 
      ----------------------------------------------------------------
         1    1.77626D+00  0.00D+00  1.78D+00  4.94D+00    0.00000D+00
         2    1.77886D+00  0.00D+00  1.78D+00  4.95D+00    1.64705D-02
         3    1.78674D+00  0.00D+00  1.79D+00  5.00D+00    3.29410D-02
         4    1.80009D+00  0.00D+00  1.80D+00  5.08D+00    4.94115D-02
         5    1.81927D+00  0.00D+00  1.82D+00  5.19D+00    6.58820D-02
         6    1.84482D+00  0.00D+00  1.84D+00  5.34D+00    8.23525D-02
         7    1.87750D+00  0.00D+00  1.88D+00  5.53D+00    9.88230D-02
         8    1.91839D+00  0.00D+00  1.92D+00  5.77D+00    1.15293D-01
         9    1.96901D+00  0.00D+00  1.97D+00  6.07D+00    1.31764D-01

 ** RSPCTL MICROITERATION NUMBER    2

       No.  Residual tot.,    conf., and orb.    Bnorm      Frequency 
      ----------------------------------------------------------------
         1    2.42196D-01  0.00D+00  2.42D-01  5.30D+00    0.00000D+00
         2    2.42883D-01  0.00D+00  2.43D-01  5.32D+00    1.64705D-02
         3    2.44970D-01  0.00D+00  2.45D-01  5.37D+00    3.29410D-02
         4    2.48534D-01  0.00D+00  2.49D-01  5.46D+00    4.94115D-02
         5    2.53718D-01  0.00D+00  2.54D-01  5.59D+00    6.58820D-02
         6    2.60738D-01  0.00D+00  2.61D-01  5.76D+00    8.23525D-02
         7    2.69924D-01  0.00D+00  2.70D-01  5.99D+00    9.88230D-02
         8    2.81760D-01  0.00D+00  2.82D-01  6.27D+00    1.15293D-01
         9    2.96980D-01  0.00D+00  2.97D-01  6.63D+00    1.31764D-01

 ** RSPCTL MICROITERATION NUMBER    3

       No.  Residual tot.,    conf., and orb.    Bnorm      Frequency 
      ----------------------------------------------------------------
         1    2.15602D-02  0.00D+00  2.16D-02  5.31D+00    0.00000D+00
         2    2.17258D-02  0.00D+00  2.17D-02  5.33D+00    1.64705D-02
         3    2.22315D-02  0.00D+00  2.22D-02  5.38D+00    3.29410D-02
         4    2.31058D-02  0.00D+00  2.31D-02  5.47D+00    4.94115D-02
         5    2.44000D-02  0.00D+00  2.44D-02  5.60D+00    6.58820D-02
         6    2.61959D-02  0.00D+00  2.62D-02  5.77D+00    8.23525D-02
         7    2.86191D-02  0.00D+00  2.86D-02  6.00D+00    9.88230D-02
         8    3.18612D-02  0.00D+00  3.19D-02  6.28D+00    1.15293D-01
         9    3.62218D-02  0.00D+00  3.62D-02  6.65D+00    1.31764D-01

 ** RSPCTL MICROITERATION NUMBER    4

       No.  Residual tot.,    conf., and orb.    Bnorm      Frequency 
      ----------------------------------------------------------------
         1    2.20007D-03  0.00D+00  2.20D-03  5.31D+00    0.00000D+00
         2    2.22448D-03  0.00D+00  2.22D-03  5.33D+00    1.64705D-02
         3    2.29982D-03  0.00D+00  2.30D-03  5.38D+00    3.29410D-02
         4    2.43277D-03  0.00D+00  2.43D-03  5.47D+00    4.94115D-02
         5    2.63558D-03  0.00D+00  2.64D-03  5.60D+00    6.58820D-02
         6    2.92821D-03  0.00D+00  2.93D-03  5.77D+00    8.23525D-02
         7    3.34214D-03  0.00D+00  3.34D-03  6.00D+00    9.88230D-02
         8    3.92726D-03  0.00D+00  3.93D-03  6.28D+00    1.15293D-01
         9    4.76489D-03  0.00D+00  4.76D-03  6.65D+00    1.31764D-01

 *** THE REQUESTED    9 SOLUTION VECTORS CONVERGED

 Convergence of RSP solution vectors, threshold = 1.00D-03
 ---------------------------------------------------------------
 (dimension of paired reduced space:   72)
 RSP solution vector no.    1; norm of residual   4.14D-04
 RSP solution vector no.    2; norm of residual   4.18D-04
 RSP solution vector no.    3; norm of residual   4.28D-04
 RSP solution vector no.    4; norm of residual   4.45D-04
 RSP solution vector no.    5; norm of residual   4.71D-04
 RSP solution vector no.    6; norm of residual   5.07D-04
 RSP solution vector no.    7; norm of residual   5.57D-04
 RSP solution vector no.    8; norm of residual   6.25D-04
 RSP solution vector no.    9; norm of residual   7.17D-04

 *** RSPCTL MICROITERATIONS CONVERGED

@ QRLRVE: SINGLET SOLUTION FOR SYMMETRY    1  ( A  )    LABEL   YDIPLEN     FREQUENCY   0.000000D+00

@ QRLRVE:  << XDIPLEN  ; YDIPLEN  >> (   0.00000):   -5.543115286638E-04

@ QRLRVE:  << YDIPLEN  ; YDIPLEN  >> (   0.00000):     29.5352794301    

@ QRLRVE:  << ZDIPLEN  ; YDIPLEN  >> (   0.00000):    4.924537281530E-04

@ QRLRVE: SINGLET SOLUTION FOR SYMMETRY    1  ( A  )    LABEL   YDIPLEN     FREQUENCY   0.164705D-01

@ QRLRVE:  << XDIPLEN  ; YDIPLEN  >> (   0.01647):   -5.586005963111E-04

@ QRLRVE:  << YDIPLEN  ; YDIPLEN  >> (   0.01647):     29.5821003720    

@ QRLRVE:  << ZDIPLEN  ; YDIPLEN  >> (   0.01647):    4.994871377276E-04

@ QRLRVE: SINGLET SOLUTION FOR SYMMETRY    1  ( A  )    LABEL   YDIPLEN     FREQUENCY   0.329410D-01

@ QRLRVE:  << XDIPLEN  ; YDIPLEN  >> (   0.03294):   -5.715824956935E-04

@ QRLRVE:  << YDIPLEN  ; YDIPLEN  >> (   0.03294):     29.7237858204    

@ QRLRVE:  << ZDIPLEN  ; YDIPLEN  >> (   0.03294):    5.209143471167E-04

@ QRLRVE: SINGLET SOLUTION FOR SYMMETRY    1  ( A  )    LABEL   YDIPLEN     FREQUENCY   0.494115D-01

@ QRLRVE:  << XDIPLEN  ; YDIPLEN  >> (   0.04941):   -5.936192978535E-04

@ QRLRVE:  << YDIPLEN  ; YDIPLEN  >> (   0.04941):     29.9641051681    

@ QRLRVE:  << ZDIPLEN  ; YDIPLEN  >> (   0.04941):    5.577278640812E-04

@ QRLRVE: SINGLET SOLUTION FOR SYMMETRY    1  ( A  )    LABEL   YDIPLEN     FREQUENCY   0.658820D-01

@ QRLRVE:  << XDIPLEN  ; YDIPLEN  >> (   0.06588):   -6.253831661824E-04

@ QRLRVE:  << YDIPLEN  ; YDIPLEN  >> (   0.06588):     30.3096977251    

@ QRLRVE:  << ZDIPLEN  ; YDIPLEN  >> (   0.06588):    6.116140266595E-04

@ QRLRVE: SINGLET SOLUTION FOR SYMMETRY    1  ( A  )    LABEL   YDIPLEN     FREQUENCY   0.823525D-01

@ QRLRVE:  << XDIPLEN  ; YDIPLEN  >> (   0.08235):   -6.679956402452E-04

@ QRLRVE:  << YDIPLEN  ; YDIPLEN  >> (   0.08235):     30.7706793321    

@ QRLRVE:  << ZDIPLEN  ; YDIPLEN  >> (   0.08235):    6.849731155682E-04

@ QRLRVE: SINGLET SOLUTION FOR SYMMETRY    1  ( A  )    LABEL   YDIPLEN     FREQUENCY   0.988230D-01

@ QRLRVE:  << XDIPLEN  ; YDIPLEN  >> (   0.09882):   -7.233192053258E-04

@ QRLRVE:  << YDIPLEN  ; YDIPLEN  >> (   0.09882):     31.3616591215    

@ QRLRVE:  << ZDIPLEN  ; YDIPLEN  >> (   0.09882):    7.808657122529E-04

@ QRLRVE: SINGLET SOLUTION FOR SYMMETRY    1  ( A  )    LABEL   YDIPLEN     FREQUENCY   0.115293D+00

@ QRLRVE:  << XDIPLEN  ; YDIPLEN  >> (   0.11529):   -7.945740773659E-04

@ QRLRVE:  << YDIPLEN  ; YDIPLEN  >> (   0.11529):     32.1034071698    

@ QRLRVE:  << ZDIPLEN  ; YDIPLEN  >> (   0.11529):    9.027210738879E-04

@ QRLRVE: SINGLET SOLUTION FOR SYMMETRY    1  ( A  )    LABEL   YDIPLEN     FREQUENCY   0.131764D+00

@ QRLRVE:  << XDIPLEN  ; YDIPLEN  >> (   0.13176):   -8.876846070652E-04

@ QRLRVE:  << YDIPLEN  ; YDIPLEN  >> (   0.13176):     33.0256363223    

@ QRLRVE:  << ZDIPLEN  ; YDIPLEN  >> (   0.13176):    1.053394849364E-03


 QRLRVE -- linear response calculation for symmetry  1  ( A  )
 QRLRVE -- operator label : ZDIPLEN 
 QRLRVE -- operator spin  :   0
 QRLRVE -- frequencies :  0.000000  0.016470  0.032941  0.049411  0.065882
                          0.082352  0.098823  0.115293  0.131764



 ---  SOLVING SETS OF LINEAR EQUATIONS FOR LINEAR RESPONSE PROPERTIES ---

 Operator symmetry = 1  ( A  ); triplet =   F


 ** RSPCTL MICROITERATION NUMBER    1

       No.  Residual tot.,    conf., and orb.    Bnorm      Frequency 
      ----------------------------------------------------------------
         1    1.64849D+00  0.00D+00  1.65D+00  5.32D+00    0.00000D+00
         2    1.65068D+00  0.00D+00  1.65D+00  5.34D+00    1.64705D-02
         3    1.65731D+00  0.00D+00  1.66D+00  5.40D+00    3.29410D-02
         4    1.66855D+00  0.00D+00  1.67D+00  5.49D+00    4.94115D-02
         5    1.68470D+00  0.00D+00  1.68D+00  5.63D+00    6.58820D-02
         6    1.70623D+00  0.00D+00  1.71D+00  5.82D+00    8.23525D-02
         7    1.73381D+00  0.00D+00  1.73D+00  6.06D+00    9.88230D-02
         8    1.76842D+00  0.00D+00  1.77D+00  6.37D+00    1.15293D-01
         9    1.81148D+00  0.00D+00  1.81D+00  6.76D+00    1.31764D-01

 ** RSPCTL MICROITERATION NUMBER    2

       No.  Residual tot.,    conf., and orb.    Bnorm      Frequency 
      ----------------------------------------------------------------
         1    3.27364D-01  0.00D+00  3.27D-01  5.68D+00    0.00000D+00
         2    3.28062D-01  0.00D+00  3.28D-01  5.70D+00    1.64705D-02
         3    3.30180D-01  0.00D+00  3.30D-01  5.77D+00    3.29410D-02
         4    3.33798D-01  0.00D+00  3.34D-01  5.88D+00    4.94115D-02
         5    3.39057D-01  0.00D+00  3.39D-01  6.04D+00    6.58820D-02
         6    3.46183D-01  0.00D+00  3.46D-01  6.26D+00    8.23525D-02
         7    3.55520D-01  0.00D+00  3.56D-01  6.54D+00    9.88230D-02
         8    3.67593D-01  0.00D+00  3.68D-01  6.92D+00    1.15293D-01
         9    3.83225D-01  0.00D+00  3.83D-01  7.40D+00    1.31764D-01

 ** RSPCTL MICROITERATION NUMBER    3

       No.  Residual tot.,    conf., and orb.    Bnorm      Frequency 
      ----------------------------------------------------------------
         1    4.40370D-02  0.00D+00  4.40D-02  5.69D+00    0.00000D+00
         2    4.41250D-02  0.00D+00  4.41D-02  5.71D+00    1.64705D-02
         3    4.43923D-02  0.00D+00  4.44D-02  5.77D+00    3.29410D-02
         4    4.48499D-02  0.00D+00  4.48D-02  5.88D+00    4.94115D-02
         5    4.55174D-02  0.00D+00  4.55D-02  6.05D+00    6.58820D-02
         6    4.64268D-02  0.00D+00  4.64D-02  6.27D+00    8.23525D-02
         7    4.76280D-02  0.00D+00  4.76D-02  6.56D+00    9.88230D-02
         8    4.92003D-02  0.00D+00  4.92D-02  6.93D+00    1.15293D-01
         9    5.12735D-02  0.00D+00  5.13D-02  7.42D+00    1.31764D-01

 ** RSPCTL MICROITERATION NUMBER    4

       No.  Residual tot.,    conf., and orb.    Bnorm      Frequency 
      ----------------------------------------------------------------
         1    3.63390D-03  0.00D+00  3.63D-03  5.69D+00    0.00000D+00
         2    3.64968D-03  0.00D+00  3.65D-03  5.71D+00    1.64705D-02
         3    3.69794D-03  0.00D+00  3.70D-03  5.77D+00    3.29410D-02
         4    3.78166D-03  0.00D+00  3.78D-03  5.88D+00    4.94115D-02
         5    3.90629D-03  0.00D+00  3.91D-03  6.05D+00    6.58820D-02
         6    4.08068D-03  0.00D+00  4.08D-03  6.27D+00    8.23525D-02
         7    4.31875D-03  0.00D+00  4.32D-03  6.56D+00    9.88230D-02
         8    4.64251D-03  0.00D+00  4.64D-03  6.93D+00    1.15293D-01
         9    5.08776D-03  0.00D+00  5.09D-03  7.42D+00    1.31764D-01

 *** THE REQUESTED    9 SOLUTION VECTORS CONVERGED

 Convergence of RSP solution vectors, threshold = 1.00D-03
 ---------------------------------------------------------------
 (dimension of paired reduced space:   72)
 RSP solution vector no.    1; norm of residual   6.39D-04
 RSP solution vector no.    2; norm of residual   6.39D-04
 RSP solution vector no.    3; norm of residual   6.41D-04
 RSP solution vector no.    4; norm of residual   6.43D-04
 RSP solution vector no.    5; norm of residual   6.46D-04
 RSP solution vector no.    6; norm of residual   6.51D-04
 RSP solution vector no.    7; norm of residual   6.59D-04
 RSP solution vector no.    8; norm of residual   6.70D-04
 RSP solution vector no.    9; norm of residual   6.86D-04

 *** RSPCTL MICROITERATIONS CONVERGED

@ QRLRVE: SINGLET SOLUTION FOR SYMMETRY    1  ( A  )    LABEL   ZDIPLEN     FREQUENCY   0.000000D+00

@ QRLRVE:  << XDIPLEN  ; ZDIPLEN  >> (   0.00000):    3.677821802636E-04

@ QRLRVE:  << YDIPLEN  ; ZDIPLEN  >> (   0.00000):   -1.726887167075E-03

@ QRLRVE:  << ZDIPLEN  ; ZDIPLEN  >> (   0.00000):     30.5003631438    

@ QRLRVE: SINGLET SOLUTION FOR SYMMETRY    1  ( A  )    LABEL   ZDIPLEN     FREQUENCY   0.164705D-01

@ QRLRVE:  << XDIPLEN  ; ZDIPLEN  >> (   0.01647):    3.698563922229E-04

@ QRLRVE:  << YDIPLEN  ; ZDIPLEN  >> (   0.01647):   -1.737077814362E-03

@ QRLRVE:  << ZDIPLEN  ; ZDIPLEN  >> (   0.01647):     30.5560010217    

@ QRLRVE: SINGLET SOLUTION FOR SYMMETRY    1  ( A  )    LABEL   ZDIPLEN     FREQUENCY   0.329410D-01

@ QRLRVE:  << XDIPLEN  ; ZDIPLEN  >> (   0.03294):    3.761817559972E-04

@ QRLRVE:  << YDIPLEN  ; ZDIPLEN  >> (   0.03294):   -1.768322137728E-03

@ QRLRVE:  << ZDIPLEN  ; ZDIPLEN  >> (   0.03294):     30.7246728812    

@ QRLRVE: SINGLET SOLUTION FOR SYMMETRY    1  ( A  )    LABEL   ZDIPLEN     FREQUENCY   0.494115D-01

@ QRLRVE:  << XDIPLEN  ; ZDIPLEN  >> (   0.04941):    3.870734595141E-04

@ QRLRVE:  << YDIPLEN  ; ZDIPLEN  >> (   0.04941):   -1.822732698811E-03

@ QRLRVE:  << ZDIPLEN  ; ZDIPLEN  >> (   0.04941):     31.0118279390    

@ QRLRVE: SINGLET SOLUTION FOR SYMMETRY    1  ( A  )    LABEL   ZDIPLEN     FREQUENCY   0.658820D-01

@ QRLRVE:  << XDIPLEN  ; ZDIPLEN  >> (   0.06588):    4.030800003372E-04

@ QRLRVE:  << YDIPLEN  ; ZDIPLEN  >> (   0.06588):   -1.904172499087E-03

@ QRLRVE:  << ZDIPLEN  ; ZDIPLEN  >> (   0.06588):     31.4271669601    

@ QRLRVE: SINGLET SOLUTION FOR SYMMETRY    1  ( A  )    LABEL   ZDIPLEN     FREQUENCY   0.823525D-01

@ QRLRVE:  << XDIPLEN  ; ZDIPLEN  >> (   0.08235):    4.250166469638E-04

@ QRLRVE:  << YDIPLEN  ; ZDIPLEN  >> (   0.08235):   -2.018861809834E-03

@ QRLRVE:  << ZDIPLEN  ; ZDIPLEN  >> (   0.08235):     31.9857133599    

@ QRLRVE: SINGLET SOLUTION FOR SYMMETRY    1  ( A  )    LABEL   ZDIPLEN     FREQUENCY   0.988230D-01

@ QRLRVE:  << XDIPLEN  ; ZDIPLEN  >> (   0.09882):    4.540061695050E-04

@ QRLRVE:  << YDIPLEN  ; ZDIPLEN  >> (   0.09882):   -2.176456016714E-03

@ QRLRVE:  << ZDIPLEN  ; ZDIPLEN  >> (   0.09882):     32.7096561460    

@ QRLRVE: SINGLET SOLUTION FOR SYMMETRY    1  ( A  )    LABEL   ZDIPLEN     FREQUENCY   0.115293D+00

@ QRLRVE:  << XDIPLEN  ; ZDIPLEN  >> (   0.11529):    4.915086672247E-04

@ QRLRVE:  << YDIPLEN  ; ZDIPLEN  >> (   0.11529):   -2.391944750707E-03

@ QRLRVE:  << ZDIPLEN  ; ZDIPLEN  >> (   0.11529):     33.6314784896    

@ QRLRVE: SINGLET SOLUTION FOR SYMMETRY    1  ( A  )    LABEL   ZDIPLEN     FREQUENCY   0.131764D+00

@ QRLRVE:  << XDIPLEN  ; ZDIPLEN  >> (   0.13176):    5.392847008214E-04

@ QRLRVE:  << YDIPLEN  ; ZDIPLEN  >> (   0.13176):   -2.689091178711E-03

@ QRLRVE:  << ZDIPLEN  ; ZDIPLEN  >> (   0.13176):     34.7994042802    
 
 ======================================================================
 ---  L I N E A R   R E S P O N S E   F U N C T I O N S --- 
 ======================================================================

 The -<<A;B>>(omega_b) functions from vectors generated
 in a *QUADRA calculation of <<A;B,C>>(omega_b,omega_c)

 Note: the accuracy of off-diagonal elements will be linear
 in the convergence threshold THCLR =  1.00D-03


 Perturbation symmetry.     KSYMOP:           1
 Perturbation spin symmetry.TRPLET:           F
 Orbital variables.         KZWOPT:        1377
 Configuration variables.   KZCONF:           0
 Total number of variables. KZVAR :        1377

@ Singlet linear response function in a.u.

@ A operator, symmetry, frequency:   XDIPLEN    1 -0.000000
@ B operator, symmetry, frequency:   XDIPLEN    1  0.000000

@ Value of linear response -<<A;B>>(omega):      29.534601836542

@ Singlet linear response function in a.u.

@ A operator, symmetry, frequency:   YDIPLEN    1 -0.000000
@ B operator, symmetry, frequency:   XDIPLEN    1  0.000000

@ Value of linear response -<<A;B>>(omega):      -0.000409191194

@ Singlet linear response function in a.u.

@ A operator, symmetry, frequency:   ZDIPLEN    1 -0.000000
@ B operator, symmetry, frequency:   XDIPLEN    1  0.000000

@ Value of linear response -<<A;B>>(omega):       0.001706469698

@ Singlet linear response function in a.u.

@ A operator, symmetry, frequency:   XDIPLEN    1 -0.016470
@ B operator, symmetry, frequency:   XDIPLEN    1  0.016470

@ Value of linear response -<<A;B>>(omega):      29.581420840798

@ Singlet linear response function in a.u.

@ A operator, symmetry, frequency:   YDIPLEN    1 -0.016470
@ B operator, symmetry, frequency:   XDIPLEN    1  0.016470

@ Value of linear response -<<A;B>>(omega):      -0.000411985104

@ Singlet linear response function in a.u.

@ A operator, symmetry, frequency:   ZDIPLEN    1 -0.016470
@ B operator, symmetry, frequency:   XDIPLEN    1  0.016470

@ Value of linear response -<<A;B>>(omega):       0.001714015593

@ Singlet linear response function in a.u.

@ A operator, symmetry, frequency:   XDIPLEN    1 -0.032941
@ B operator, symmetry, frequency:   XDIPLEN    1  0.032941

@ Value of linear response -<<A;B>>(omega):      29.723100416200

@ Singlet linear response function in a.u.

@ A operator, symmetry, frequency:   YDIPLEN    1 -0.032941
@ B operator, symmetry, frequency:   XDIPLEN    1  0.032941

@ Value of linear response -<<A;B>>(omega):      -0.000420438249

@ Singlet linear response function in a.u.

@ A operator, symmetry, frequency:   ZDIPLEN    1 -0.032941
@ B operator, symmetry, frequency:   XDIPLEN    1  0.032941

@ Value of linear response -<<A;B>>(omega):       0.001736529003

@ Singlet linear response function in a.u.

@ A operator, symmetry, frequency:   XDIPLEN    1 -0.049411
@ B operator, symmetry, frequency:   XDIPLEN    1  0.049411

@ Value of linear response -<<A;B>>(omega):      29.963409770197

@ Singlet linear response function in a.u.

@ A operator, symmetry, frequency:   YDIPLEN    1 -0.049411
@ B operator, symmetry, frequency:   XDIPLEN    1  0.049411

@ Value of linear response -<<A;B>>(omega):      -0.000434761513

@ Singlet linear response function in a.u.

@ A operator, symmetry, frequency:   ZDIPLEN    1 -0.049411
@ B operator, symmetry, frequency:   XDIPLEN    1  0.049411

@ Value of linear response -<<A;B>>(omega):       0.001773576169

@ Singlet linear response function in a.u.

@ A operator, symmetry, frequency:   XDIPLEN    1 -0.065882
@ B operator, symmetry, frequency:   XDIPLEN    1  0.065882

@ Value of linear response -<<A;B>>(omega):      30.308987888237

@ Singlet linear response function in a.u.

@ A operator, symmetry, frequency:   YDIPLEN    1 -0.065882
@ B operator, symmetry, frequency:   XDIPLEN    1  0.065882

@ Value of linear response -<<A;B>>(omega):      -0.000455292341

@ Singlet linear response function in a.u.

@ A operator, symmetry, frequency:   ZDIPLEN    1 -0.065882
@ B operator, symmetry, frequency:   XDIPLEN    1  0.065882

@ Value of linear response -<<A;B>>(omega):       0.001824212394

@ Singlet linear response function in a.u.

@ A operator, symmetry, frequency:   XDIPLEN    1 -0.000000
@ B operator, symmetry, frequency:   YDIPLEN    1  0.000000

@ Value of linear response -<<A;B>>(omega):      -0.000554311529

@ Singlet linear response function in a.u.

@ A operator, symmetry, frequency:   YDIPLEN    1 -0.000000
@ B operator, symmetry, frequency:   YDIPLEN    1  0.000000

@ Value of linear response -<<A;B>>(omega):      29.535279430119

@ Singlet linear response function in a.u.

@ A operator, symmetry, frequency:   ZDIPLEN    1 -0.000000
@ B operator, symmetry, frequency:   YDIPLEN    1  0.000000

@ Value of linear response -<<A;B>>(omega):       0.000492453728

@ Singlet linear response function in a.u.

@ A operator, symmetry, frequency:   XDIPLEN    1 -0.016470
@ B operator, symmetry, frequency:   YDIPLEN    1  0.016470

@ Value of linear response -<<A;B>>(omega):      -0.000558600596

@ Singlet linear response function in a.u.

[...]
@ B-freq = 0.049411  C-freq = 0.049411     beta(Y;Z,Y) =     -5.32765058
@ B-freq = 0.049411  C-freq = 0.049411     beta(Z;Z,Y) =     -0.00350912
@ B-freq = 0.065882  C-freq = 0.049411     beta(X;Z,Y) =      0.00280416
@ B-freq = 0.065882  C-freq = 0.049411     beta(Y;Z,Y) =     -6.02845671
@ B-freq = 0.065882  C-freq = 0.049411     beta(Z;Z,Y) =     -0.00256960
@ B-freq = 0.000000  C-freq = 0.065882     beta(X;X,Y) = beta(X,Y,X)
@ B-freq = 0.000000  C-freq = 0.065882     beta(Y;X,Y) = beta(Y,Y,X)
@ B-freq = 0.000000  C-freq = 0.065882     beta(Z;X,Y) = beta(Z,Y,X)
@ B-freq = 0.016470  C-freq = 0.065882     beta(X;X,Y) = beta(X,Y,X)
@ B-freq = 0.016470  C-freq = 0.065882     beta(Y;X,Y) = beta(Y,Y,X)
@ B-freq = 0.016470  C-freq = 0.065882     beta(Z;X,Y) = beta(Z,Y,X)
@ B-freq = 0.032941  C-freq = 0.065882     beta(X;X,Y) = beta(X,Y,X)
@ B-freq = 0.032941  C-freq = 0.065882     beta(Y;X,Y) = beta(Y,Y,X)
@ B-freq = 0.032941  C-freq = 0.065882     beta(Z;X,Y) = beta(Z,Y,X)
@ B-freq = 0.049411  C-freq = 0.065882     beta(X;X,Y) = beta(X,Y,X)
@ B-freq = 0.049411  C-freq = 0.065882     beta(Y;X,Y) = beta(Y,Y,X)
@ B-freq = 0.049411  C-freq = 0.065882     beta(Z;X,Y) = beta(Z,Y,X)
@ B-freq = 0.065882  C-freq = 0.065882     beta(X;X,Y) = beta(X,Y,X)
@ B-freq = 0.065882  C-freq = 0.065882     beta(Y;X,Y) = beta(Y,Y,X)
@ B-freq = 0.065882  C-freq = 0.065882     beta(Z;X,Y) = beta(Z,Y,X)
@ B-freq = 0.000000  C-freq = 0.065882     beta(X;Y,Y) = beta(X,Y,Y)
@ B-freq = 0.000000  C-freq = 0.065882     beta(Y;Y,Y) = beta(Y,Y,Y)
@ B-freq = 0.000000  C-freq = 0.065882     beta(Z;Y,Y) = beta(Z,Y,Y)
@ B-freq = 0.016470  C-freq = 0.065882     beta(X;Y,Y) = beta(X,Y,Y)
@ B-freq = 0.016470  C-freq = 0.065882     beta(Y;Y,Y) = beta(Y,Y,Y)
@ B-freq = 0.016470  C-freq = 0.065882     beta(Z;Y,Y) = beta(Z,Y,Y)
@ B-freq = 0.032941  C-freq = 0.065882     beta(X;Y,Y) = beta(X,Y,Y)
@ B-freq = 0.032941  C-freq = 0.065882     beta(Y;Y,Y) = beta(Y,Y,Y)
@ B-freq = 0.032941  C-freq = 0.065882     beta(Z;Y,Y) = beta(Z,Y,Y)
@ B-freq = 0.049411  C-freq = 0.065882     beta(X;Y,Y) = beta(X,Y,Y)
@ B-freq = 0.049411  C-freq = 0.065882     beta(Y;Y,Y) = beta(Y,Y,Y)
@ B-freq = 0.049411  C-freq = 0.065882     beta(Z;Y,Y) = beta(Z,Y,Y)
@ B-freq = 0.065882  C-freq = 0.065882     beta(X;Y,Y) =     -0.00078315
@ B-freq = 0.065882  C-freq = 0.065882     beta(Y;Y,Y) =     17.73972223
@ B-freq = 0.065882  C-freq = 0.065882     beta(Z;Y,Y) =     -7.96304381
@ B-freq = 0.000000  C-freq = 0.065882     beta(X;Z,Y) =      0.00247479
@ B-freq = 0.000000  C-freq = 0.065882     beta(Y;Z,Y) =     -4.65344832
@ B-freq = 0.000000  C-freq = 0.065882     beta(Z;Z,Y) =     -0.00494470
@ B-freq = 0.016470  C-freq = 0.065882     beta(X;Z,Y) =      0.00256708
@ B-freq = 0.016470  C-freq = 0.065882     beta(Y;Z,Y) =     -4.86493678
@ B-freq = 0.016470  C-freq = 0.065882     beta(Z;Z,Y) =     -0.00463814
@ B-freq = 0.032941  C-freq = 0.065882     beta(X;Z,Y) =      0.00268642
@ B-freq = 0.032941  C-freq = 0.065882     beta(Y;Z,Y) =     -5.23624737
@ B-freq = 0.032941  C-freq = 0.065882     beta(Z;Z,Y) =     -0.00413803
@ B-freq = 0.049411  C-freq = 0.065882     beta(X;Z,Y) =      0.00284515
@ B-freq = 0.049411  C-freq = 0.065882     beta(Y;Z,Y) =     -5.82085270
@ B-freq = 0.049411  C-freq = 0.065882     beta(Z;Z,Y) =     -0.00335269
@ B-freq = 0.065882  C-freq = 0.065882     beta(X;Z,Y) =      0.00306569
@ B-freq = 0.065882  C-freq = 0.065882     beta(Y;Z,Y) =     -6.71085031
@ B-freq = 0.065882  C-freq = 0.065882     beta(Z;Z,Y) =     -0.00212497
@ B-freq = 0.000000  C-freq = 0.000000     beta(X;X,Z) = beta(Z,X,X)
@ B-freq = 0.000000  C-freq = 0.000000     beta(Y;X,Z) = beta(Z,Y,X)
@ B-freq = 0.000000  C-freq = 0.000000     beta(Z;X,Z) = beta(Z,Z,X)
@ B-freq = 0.016470  C-freq = 0.000000     beta(X;X,Z) = beta(X,Z,X)
@ B-freq = 0.016470  C-freq = 0.000000     beta(Y;X,Z) = beta(Y,Z,X)
@ B-freq = 0.016470  C-freq = 0.000000     beta(Z;X,Z) = beta(Z,Z,X)
@ B-freq = 0.032941  C-freq = 0.000000     beta(X;X,Z) = beta(X,Z,X)
@ B-freq = 0.032941  C-freq = 0.000000     beta(Y;X,Z) = beta(Y,Z,X)
@ B-freq = 0.032941  C-freq = 0.000000     beta(Z;X,Z) = beta(Z,Z,X)
@ B-freq = 0.049411  C-freq = 0.000000     beta(X;X,Z) = beta(X,Z,X)
@ B-freq = 0.049411  C-freq = 0.000000     beta(Y;X,Z) = beta(Y,Z,X)
@ B-freq = 0.049411  C-freq = 0.000000     beta(Z;X,Z) = beta(Z,Z,X)
@ B-freq = 0.065882  C-freq = 0.000000     beta(X;X,Z) = beta(X,Z,X)
@ B-freq = 0.065882  C-freq = 0.000000     beta(Y;X,Z) = beta(Y,Z,X)
@ B-freq = 0.065882  C-freq = 0.000000     beta(Z;X,Z) = beta(Z,Z,X)
@ B-freq = 0.000000  C-freq = 0.000000     beta(X;Y,Z) = beta(Z,Y,X)
@ B-freq = 0.000000  C-freq = 0.000000     beta(Y;Y,Z) = beta(Z,Y,Y)
@ B-freq = 0.000000  C-freq = 0.000000     beta(Z;Y,Z) = beta(Z,Z,Y)
@ B-freq = 0.016470  C-freq = 0.000000     beta(X;Y,Z) = beta(X,Z,Y)
@ B-freq = 0.016470  C-freq = 0.000000     beta(Y;Y,Z) = beta(Y,Z,Y)
@ B-freq = 0.016470  C-freq = 0.000000     beta(Z;Y,Z) = beta(Z,Z,Y)
@ B-freq = 0.032941  C-freq = 0.000000     beta(X;Y,Z) = beta(X,Z,Y)
@ B-freq = 0.032941  C-freq = 0.000000     beta(Y;Y,Z) = beta(Y,Z,Y)
@ B-freq = 0.032941  C-freq = 0.000000     beta(Z;Y,Z) = beta(Z,Z,Y)
@ B-freq = 0.049411  C-freq = 0.000000     beta(X;Y,Z) = beta(X,Z,Y)
@ B-freq = 0.049411  C-freq = 0.000000     beta(Y;Y,Z) = beta(Y,Z,Y)
@ B-freq = 0.049411  C-freq = 0.000000     beta(Z;Y,Z) = beta(Z,Z,Y)
@ B-freq = 0.065882  C-freq = 0.000000     beta(X;Y,Z) = beta(X,Z,Y)
@ B-freq = 0.065882  C-freq = 0.000000     beta(Y;Y,Z) = beta(Y,Z,Y)
@ B-freq = 0.065882  C-freq = 0.000000     beta(Z;Y,Z) = beta(Z,Z,Y)
@ B-freq = 0.000000  C-freq = 0.000000     beta(X;Z,Z) = beta(Z,Z,X)
@ B-freq = 0.000000  C-freq = 0.000000     beta(Y;Z,Z) = beta(Z,Z,Y)
@ B-freq = 0.000000  C-freq = 0.000000     beta(X;Z,Z) =      0.00327459
@ B-freq = 0.000000  C-freq = 0.000000     beta(Y;Z,Z) =     -0.00444522
@ B-freq = 0.000000  C-freq = 0.000000     beta(Z;Z,Z) =    -29.96564819
@ B-freq = 0.016470  C-freq = 0.000000     beta(X;Z,Z) =      0.00328633
@ B-freq = 0.016470  C-freq = 0.000000     beta(Y;Z,Z) =     -0.00447409
@ B-freq = 0.016470  C-freq = 0.000000     beta(Z;Z,Z) =    -30.14620811
@ B-freq = 0.032941  C-freq = 0.000000     beta(X;Z,Z) =      0.00332228
@ B-freq = 0.032941  C-freq = 0.000000     beta(Y;Z,Z) =     -0.00456257
@ B-freq = 0.032941  C-freq = 0.000000     beta(Z;Z,Z) =    -30.69802982
@ B-freq = 0.049411  C-freq = 0.000000     beta(X;Z,Z) =      0.00338503
@ B-freq = 0.049411  C-freq = 0.000000     beta(Y;Z,Z) =     -0.00471606
@ B-freq = 0.049411  C-freq = 0.000000     beta(Z;Z,Z) =    -31.65286317
@ B-freq = 0.065882  C-freq = 0.000000     beta(X;Z,Z) =      0.00348001
@ B-freq = 0.065882  C-freq = 0.000000     beta(Y;Z,Z) =     -0.00494259
@ B-freq = 0.065882  C-freq = 0.000000     beta(Z;Z,Z) =    -33.06835557
@ B-freq = 0.000000  C-freq = 0.016470     beta(X;X,Z) = beta(X,Z,X)
@ B-freq = 0.000000  C-freq = 0.016470     beta(Y;X,Z) = beta(Y,Z,X)
@ B-freq = 0.000000  C-freq = 0.016470     beta(Z;X,Z) = beta(Z,Z,X)
@ B-freq = 0.016470  C-freq = 0.016470     beta(X;X,Z) = beta(X,Z,X)
@ B-freq = 0.016470  C-freq = 0.016470     beta(Y;X,Z) = beta(Y,Z,X)
@ B-freq = 0.016470  C-freq = 0.016470     beta(Z;X,Z) = beta(Z,Z,X)
@ B-freq = 0.032941  C-freq = 0.016470     beta(X;X,Z) = beta(X,Z,X)
@ B-freq = 0.032941  C-freq = 0.016470     beta(Y;X,Z) = beta(Y,Z,X)
@ B-freq = 0.032941  C-freq = 0.016470     beta(Z;X,Z) = beta(Z,Z,X)
@ B-freq = 0.049411  C-freq = 0.016470     beta(X;X,Z) = beta(X,Z,X)
@ B-freq = 0.049411  C-freq = 0.016470     beta(Y;X,Z) = beta(Y,Z,X)
@ B-freq = 0.049411  C-freq = 0.016470     beta(Z;X,Z) = beta(Z,Z,X)
@ B-freq = 0.065882  C-freq = 0.016470     beta(X;X,Z) = beta(X,Z,X)
@ B-freq = 0.065882  C-freq = 0.016470     beta(Y;X,Z) = beta(Y,Z,X)
@ B-freq = 0.065882  C-freq = 0.016470     beta(Z;X,Z) = beta(Z,Z,X)
@ B-freq = 0.000000  C-freq = 0.016470     beta(X;Y,Z) = beta(X,Z,Y)
@ B-freq = 0.000000  C-freq = 0.016470     beta(Y;Y,Z) = beta(Y,Z,Y)
@ B-freq = 0.000000  C-freq = 0.016470     beta(Z;Y,Z) = beta(Z,Z,Y)
@ B-freq = 0.016470  C-freq = 0.016470     beta(X;Y,Z) = beta(X,Z,Y)
@ B-freq = 0.016470  C-freq = 0.016470     beta(Y;Y,Z) = beta(Y,Z,Y)
@ B-freq = 0.016470  C-freq = 0.016470     beta(Z;Y,Z) = beta(Z,Z,Y)
@ B-freq = 0.032941  C-freq = 0.016470     beta(X;Y,Z) = beta(X,Z,Y)
@ B-freq = 0.032941  C-freq = 0.016470     beta(Y;Y,Z) = beta(Y,Z,Y)
@ B-freq = 0.032941  C-freq = 0.016470     beta(Z;Y,Z) = beta(Z,Z,Y)
@ B-freq = 0.049411  C-freq = 0.016470     beta(X;Y,Z) = beta(X,Z,Y)
@ B-freq = 0.049411  C-freq = 0.016470     beta(Y;Y,Z) = beta(Y,Z,Y)
@ B-freq = 0.049411  C-freq = 0.016470     beta(Z;Y,Z) = beta(Z,Z,Y)
@ B-freq = 0.065882  C-freq = 0.016470     beta(X;Y,Z) = beta(X,Z,Y)
@ B-freq = 0.065882  C-freq = 0.016470     beta(Y;Y,Z) = beta(Y,Z,Y)
@ B-freq = 0.065882  C-freq = 0.016470     beta(Z;Y,Z) = beta(Z,Z,Y)
@ B-freq = 0.000000  C-freq = 0.016470     beta(X;Z,Z) = beta(X,Z,Z)
@ B-freq = 0.000000  C-freq = 0.016470     beta(Y;Z,Z) = beta(Y,Z,Z)
@ B-freq = 0.000000  C-freq = 0.016470     beta(Z;Z,Z) = beta(Z,Z,Z)
@ B-freq = 0.016470  C-freq = 0.016470     beta(X;Z,Z) =      0.00334947
@ B-freq = 0.016470  C-freq = 0.016470     beta(Y;Z,Z) =     -0.00461231
@ B-freq = 0.016470  C-freq = 0.016470     beta(Z;Z,Z) =    -30.51237995
@ B-freq = 0.032941  C-freq = 0.016470     beta(X;Z,Z) =      0.00344045
@ B-freq = 0.032941  C-freq = 0.016470     beta(Y;Z,Z) =     -0.00481978
@ B-freq = 0.032941  C-freq = 0.016470     beta(Z;Z,Z) =    -31.26554718
@ B-freq = 0.049411  C-freq = 0.016470     beta(X;Z,Z) =      0.00356534
@ B-freq = 0.049411  C-freq = 0.016470     beta(Y;Z,Z) =     -0.00510850
@ B-freq = 0.049411  C-freq = 0.016470     beta(Z;Z,Z) =    -32.45012425
@ B-freq = 0.065882  C-freq = 0.016470     beta(X;Z,Z) =      0.00373500
@ B-freq = 0.065882  C-freq = 0.016470     beta(Y;Z,Z) =     -0.00549161
@ B-freq = 0.065882  C-freq = 0.016470     beta(Z;Z,Z) =    -34.14032931
@ B-freq = 0.000000  C-freq = 0.032941     beta(X;X,Z) = beta(X,Z,X)
@ B-freq = 0.000000  C-freq = 0.032941     beta(Y;X,Z) = beta(Y,Z,X)
@ B-freq = 0.000000  C-freq = 0.032941     beta(Z;X,Z) = beta(Z,Z,X)
@ B-freq = 0.016470  C-freq = 0.032941     beta(X;X,Z) = beta(X,Z,X)
@ B-freq = 0.016470  C-freq = 0.032941     beta(Y;X,Z) = beta(Y,Z,X)
@ B-freq = 0.016470  C-freq = 0.032941     beta(Z;X,Z) = beta(Z,Z,X)
@ B-freq = 0.032941  C-freq = 0.032941     beta(X;X,Z) = beta(X,Z,X)
@ B-freq = 0.032941  C-freq = 0.032941     beta(Y;X,Z) = beta(Y,Z,X)
@ B-freq = 0.032941  C-freq = 0.032941     beta(Z;X,Z) = beta(Z,Z,X)
@ B-freq = 0.049411  C-freq = 0.032941     beta(X;X,Z) = beta(X,Z,X)
@ B-freq = 0.049411  C-freq = 0.032941     beta(Y;X,Z) = beta(Y,Z,X)
@ B-freq = 0.049411  C-freq = 0.032941     beta(Z;X,Z) = beta(Z,Z,X)
@ B-freq = 0.065882  C-freq = 0.032941     beta(X;X,Z) = beta(X,Z,X)
@ B-freq = 0.065882  C-freq = 0.032941     beta(Y;X,Z) = beta(Y,Z,X)
@ B-freq = 0.065882  C-freq = 0.032941     beta(Z;X,Z) = beta(Z,Z,X)
@ B-freq = 0.000000  C-freq = 0.032941     beta(X;Y,Z) = beta(X,Z,Y)
@ B-freq = 0.000000  C-freq = 0.032941     beta(Y;Y,Z) = beta(Y,Z,Y)
@ B-freq = 0.000000  C-freq = 0.032941     beta(Z;Y,Z) = beta(Z,Z,Y)
@ B-freq = 0.016470  C-freq = 0.032941     beta(X;Y,Z) = beta(X,Z,Y)
@ B-freq = 0.016470  C-freq = 0.032941     beta(Y;Y,Z) = beta(Y,Z,Y)
@ B-freq = 0.016470  C-freq = 0.032941     beta(Z;Y,Z) = beta(Z,Z,Y)
@ B-freq = 0.032941  C-freq = 0.032941     beta(X;Y,Z) = beta(X,Z,Y)
@ B-freq = 0.032941  C-freq = 0.032941     beta(Y;Y,Z) = beta(Y,Z,Y)
@ B-freq = 0.032941  C-freq = 0.032941     beta(Z;Y,Z) = beta(Z,Z,Y)
@ B-freq = 0.049411  C-freq = 0.032941     beta(X;Y,Z) = beta(X,Z,Y)
@ B-freq = 0.049411  C-freq = 0.032941     beta(Y;Y,Z) = beta(Y,Z,Y)
@ B-freq = 0.049411  C-freq = 0.032941     beta(Z;Y,Z) = beta(Z,Z,Y)
@ B-freq = 0.065882  C-freq = 0.032941     beta(X;Y,Z) = beta(X,Z,Y)
@ B-freq = 0.065882  C-freq = 0.032941     beta(Y;Y,Z) = beta(Y,Z,Y)
@ B-freq = 0.065882  C-freq = 0.032941     beta(Z;Y,Z) = beta(Z,Z,Y)
@ B-freq = 0.000000  C-freq = 0.032941     beta(X;Z,Z) = beta(X,Z,Z)
@ B-freq = 0.000000  C-freq = 0.032941     beta(Y;Z,Z) = beta(Y,Z,Z)
@ B-freq = 0.000000  C-freq = 0.032941     beta(Z;Z,Z) = beta(Z,Z,Z)
@ B-freq = 0.016470  C-freq = 0.032941     beta(X;Z,Z) = beta(X,Z,Z)
@ B-freq = 0.016470  C-freq = 0.032941     beta(Y;Z,Z) = beta(Y,Z,Z)
@ B-freq = 0.016470  C-freq = 0.032941     beta(Z;Z,Z) = beta(Z,Z,Z)
@ B-freq = 0.032941  C-freq = 0.032941     beta(X;Z,Z) =      0.00359286
@ B-freq = 0.032941  C-freq = 0.032941     beta(Y;Z,Z) =     -0.00516097
@ B-freq = 0.032941  C-freq = 0.032941     beta(Z;Z,Z) =    -32.24803761
@ B-freq = 0.049411  C-freq = 0.032941     beta(X;Z,Z) =      0.00379069
@ B-freq = 0.049411  C-freq = 0.032941     beta(Y;Z,Z) =     -0.00560315
@ B-freq = 0.049411  C-freq = 0.032941     beta(Z;Z,Z) =    -33.70570751
@ B-freq = 0.065882  C-freq = 0.032941     beta(X;Z,Z) =      0.00405340
@ B-freq = 0.065882  C-freq = 0.032941     beta(Y;Z,Z) =     -0.00615944
@ B-freq = 0.065882  C-freq = 0.032941     beta(Z;Z,Z) =    -35.73475690
@ B-freq = 0.000000  C-freq = 0.049411     beta(X;X,Z) = beta(X,Z,X)
@ B-freq = 0.000000  C-freq = 0.049411     beta(Y;X,Z) = beta(Y,Z,X)
@ B-freq = 0.000000  C-freq = 0.049411     beta(Z;X,Z) = beta(Z,Z,X)
@ B-freq = 0.016470  C-freq = 0.049411     beta(X;X,Z) = beta(X,Z,X)
@ B-freq = 0.016470  C-freq = 0.049411     beta(Y;X,Z) = beta(Y,Z,X)
@ B-freq = 0.016470  C-freq = 0.049411     beta(Z;X,Z) = beta(Z,Z,X)
@ B-freq = 0.032941  C-freq = 0.049411     beta(X;X,Z) = beta(X,Z,X)
@ B-freq = 0.032941  C-freq = 0.049411     beta(Y;X,Z) = beta(Y,Z,X)
@ B-freq = 0.032941  C-freq = 0.049411     beta(Z;X,Z) = beta(Z,Z,X)
@ B-freq = 0.049411  C-freq = 0.049411     beta(X;X,Z) = beta(X,Z,X)
@ B-freq = 0.049411  C-freq = 0.049411     beta(Y;X,Z) = beta(Y,Z,X)
@ B-freq = 0.049411  C-freq = 0.049411     beta(Z;X,Z) = beta(Z,Z,X)
@ B-freq = 0.065882  C-freq = 0.049411     beta(X;X,Z) = beta(X,Z,X)
@ B-freq = 0.065882  C-freq = 0.049411     beta(Y;X,Z) = beta(Y,Z,X)
@ B-freq = 0.065882  C-freq = 0.049411     beta(Z;X,Z) = beta(Z,Z,X)
@ B-freq = 0.000000  C-freq = 0.049411     beta(X;Y,Z) = beta(X,Z,Y)
@ B-freq = 0.000000  C-freq = 0.049411     beta(Y;Y,Z) = beta(Y,Z,Y)
@ B-freq = 0.000000  C-freq = 0.049411     beta(Z;Y,Z) = beta(Z,Z,Y)
@ B-freq = 0.016470  C-freq = 0.049411     beta(X;Y,Z) = beta(X,Z,Y)
@ B-freq = 0.016470  C-freq = 0.049411     beta(Y;Y,Z) = beta(Y,Z,Y)
@ B-freq = 0.016470  C-freq = 0.049411     beta(Z;Y,Z) = beta(Z,Z,Y)
@ B-freq = 0.032941  C-freq = 0.049411     beta(X;Y,Z) = beta(X,Z,Y)
@ B-freq = 0.032941  C-freq = 0.049411     beta(Y;Y,Z) = beta(Y,Z,Y)
@ B-freq = 0.032941  C-freq = 0.049411     beta(Z;Y,Z) = beta(Z,Z,Y)
@ B-freq = 0.049411  C-freq = 0.049411     beta(X;Y,Z) = beta(X,Z,Y)
@ B-freq = 0.049411  C-freq = 0.049411     beta(Y;Y,Z) = beta(Y,Z,Y)
@ B-freq = 0.049411  C-freq = 0.049411     beta(Z;Y,Z) = beta(Z,Z,Y)
@ B-freq = 0.065882  C-freq = 0.049411     beta(X;Y,Z) = beta(X,Z,Y)
@ B-freq = 0.065882  C-freq = 0.049411     beta(Y;Y,Z) = beta(Y,Z,Y)
@ B-freq = 0.065882  C-freq = 0.049411     beta(Z;Y,Z) = beta(Z,Z,Y)
@ B-freq = 0.000000  C-freq = 0.049411     beta(X;Z,Z) = beta(X,Z,Z)
@ B-freq = 0.000000  C-freq = 0.049411     beta(Y;Z,Z) = beta(Y,Z,Z)
@ B-freq = 0.000000  C-freq = 0.049411     beta(Z;Z,Z) = beta(Z,Z,Z)
@ B-freq = 0.016470  C-freq = 0.049411     beta(X;Z,Z) = beta(X,Z,Z)
@ B-freq = 0.016470  C-freq = 0.049411     beta(Y;Z,Z) = beta(Y,Z,Z)
@ B-freq = 0.016470  C-freq = 0.049411     beta(Z;Z,Z) = beta(Z,Z,Z)
@ B-freq = 0.032941  C-freq = 0.049411     beta(X;Z,Z) = beta(X,Z,Z)
@ B-freq = 0.032941  C-freq = 0.049411     beta(Y;Z,Z) = beta(Y,Z,Z)
@ B-freq = 0.032941  C-freq = 0.049411     beta(Z;Z,Z) = beta(Z,Z,Z)
@ B-freq = 0.049411  C-freq = 0.049411     beta(X;Z,Z) =      0.00408048
@ B-freq = 0.049411  C-freq = 0.049411     beta(Y;Z,Z) =     -0.00621703
@ B-freq = 0.049411  C-freq = 0.049411     beta(Z;Z,Z) =    -35.50079245
@ B-freq = 0.065882  C-freq = 0.049411     beta(X;Z,Z) =      0.00446941
@ B-freq = 0.065882  C-freq = 0.049411     beta(Y;Z,Z) =     -0.00694894
@ B-freq = 0.065882  C-freq = 0.049411     beta(Z;Z,Z) =    -37.96230540
@ B-freq = 0.000000  C-freq = 0.065882     beta(X;X,Z) = beta(X,Z,X)
@ B-freq = 0.000000  C-freq = 0.065882     beta(Y;X,Z) = beta(Y,Z,X)
@ B-freq = 0.000000  C-freq = 0.065882     beta(Z;X,Z) = beta(Z,Z,X)
@ B-freq = 0.016470  C-freq = 0.065882     beta(X;X,Z) = beta(X,Z,X)
@ B-freq = 0.016470  C-freq = 0.065882     beta(Y;X,Z) = beta(Y,Z,X)
@ B-freq = 0.016470  C-freq = 0.065882     beta(Z;X,Z) = beta(Z,Z,X)
@ B-freq = 0.032941  C-freq = 0.065882     beta(X;X,Z) = beta(X,Z,X)
@ B-freq = 0.032941  C-freq = 0.065882     beta(Y;X,Z) = beta(Y,Z,X)
@ B-freq = 0.032941  C-freq = 0.065882     beta(Z;X,Z) = beta(Z,Z,X)
@ B-freq = 0.049411  C-freq = 0.065882     beta(X;X,Z) = beta(X,Z,X)
@ B-freq = 0.049411  C-freq = 0.065882     beta(Y;X,Z) = beta(Y,Z,X)
@ B-freq = 0.049411  C-freq = 0.065882     beta(Z;X,Z) = beta(Z,Z,X)
@ B-freq = 0.065882  C-freq = 0.065882     beta(X;X,Z) = beta(X,Z,X)
@ B-freq = 0.065882  C-freq = 0.065882     beta(Y;X,Z) = beta(Y,Z,X)
@ B-freq = 0.065882  C-freq = 0.065882     beta(Z;X,Z) = beta(Z,Z,X)
@ B-freq = 0.000000  C-freq = 0.065882     beta(X;Y,Z) = beta(X,Z,Y)
@ B-freq = 0.000000  C-freq = 0.065882     beta(Y;Y,Z) = beta(Y,Z,Y)
@ B-freq = 0.000000  C-freq = 0.065882     beta(Z;Y,Z) = beta(Z,Z,Y)
@ B-freq = 0.016470  C-freq = 0.065882     beta(X;Y,Z) = beta(X,Z,Y)
@ B-freq = 0.016470  C-freq = 0.065882     beta(Y;Y,Z) = beta(Y,Z,Y)
@ B-freq = 0.016470  C-freq = 0.065882     beta(Z;Y,Z) = beta(Z,Z,Y)
@ B-freq = 0.032941  C-freq = 0.065882     beta(X;Y,Z) = beta(X,Z,Y)
@ B-freq = 0.032941  C-freq = 0.065882     beta(Y;Y,Z) = beta(Y,Z,Y)
@ B-freq = 0.032941  C-freq = 0.065882     beta(Z;Y,Z) = beta(Z,Z,Y)
@ B-freq = 0.049411  C-freq = 0.065882     beta(X;Y,Z) = beta(X,Z,Y)
@ B-freq = 0.049411  C-freq = 0.065882     beta(Y;Y,Z) = beta(Y,Z,Y)
@ B-freq = 0.049411  C-freq = 0.065882     beta(Z;Y,Z) = beta(Z,Z,Y)
@ B-freq = 0.065882  C-freq = 0.065882     beta(X;Y,Z) = beta(X,Z,Y)
@ B-freq = 0.065882  C-freq = 0.065882     beta(Y;Y,Z) = beta(Y,Z,Y)
@ B-freq = 0.065882  C-freq = 0.065882     beta(Z;Y,Z) = beta(Z,Z,Y)
@ B-freq = 0.000000  C-freq = 0.065882     beta(X;Z,Z) = beta(X,Z,Z)
@ B-freq = 0.000000  C-freq = 0.065882     beta(Y;Z,Z) = beta(Y,Z,Z)
@ B-freq = 0.000000  C-freq = 0.065882     beta(Z;Z,Z) = beta(Z,Z,Z)
@ B-freq = 0.016470  C-freq = 0.065882     beta(X;Z,Z) = beta(X,Z,Z)
@ B-freq = 0.016470  C-freq = 0.065882     beta(Y;Z,Z) = beta(Y,Z,Z)
@ B-freq = 0.016470  C-freq = 0.065882     beta(Z;Z,Z) = beta(Z,Z,Z)
@ B-freq = 0.032941  C-freq = 0.065882     beta(X;Z,Z) = beta(X,Z,Z)
@ B-freq = 0.032941  C-freq = 0.065882     beta(Y;Z,Z) = beta(Y,Z,Z)
@ B-freq = 0.032941  C-freq = 0.065882     beta(Z;Z,Z) = beta(Z,Z,Z)
@ B-freq = 0.049411  C-freq = 0.065882     beta(X;Z,Z) = beta(X,Z,Z)
@ B-freq = 0.049411  C-freq = 0.065882     beta(Y;Z,Z) = beta(Y,Z,Z)
@ B-freq = 0.049411  C-freq = 0.065882     beta(Z;Z,Z) = beta(Z,Z,Z)
@ B-freq = 0.065882  C-freq = 0.065882     beta(X;Z,Z) =      0.00504701
@ B-freq = 0.065882  C-freq = 0.065882     beta(Y;Z,Z) =     -0.00780712
@ B-freq = 0.065882  C-freq = 0.065882     beta(Z;Z,Z) =    -40.99514580

  Total CPU  time used in RESPONSE:  8 minutes 57 seconds
  Total wall time used in RESPONSE:  8 minutes 58 seconds


                   .-------------------------------------------.
                   | End of Dynamic Property Section (RESPONS) |
                   `-------------------------------------------'

  Total CPU  time used in DALTON:  9 minutes 16 seconds
  Total wall time used in DALTON:  9 minutes 18 seconds

 
     Date and time (Linux)  : Fri Sep 29 07:16:01 2023
     Host name              : sn-mem                                  
