

     ************************************************************************
     *************** Dalton - An Electronic Structure Program ***************
     ************************************************************************

    This is output from DALTON release Dalton2020.0 (2020)
         ( Web site: http://daltonprogram.org )

   ----------------------------------------------------------------------------

    NOTE:
     
    Dalton is an experimental code for the evaluation of molecular
    properties using (MC)SCF, DFT, CI, and CC wave functions.
    The authors accept no responsibility for the performance of
    the code or for the correctness of the results.
     
    The code (in whole or part) is provided under a licence and
    is not to be reproduced for further distribution without
    the written permission of the authors or their representatives.
     
    See the home page "http://daltonprogram.org" for further information.
     
    If results obtained with this code are published,
    the appropriate citations would be both of:
     
       K. Aidas, C. Angeli, K. L. Bak, V. Bakken, R. Bast,
       L. Boman, O. Christiansen, R. Cimiraglia, S. Coriani,
       P. Dahle, E. K. Dalskov, U. Ekstroem,
       T. Enevoldsen, J. J. Eriksen, P. Ettenhuber, B. Fernandez,
       L. Ferrighi, H. Fliegl, L. Frediani, K. Hald, A. Halkier,
       C. Haettig, H. Heiberg, T. Helgaker, A. C. Hennum,
       H. Hettema, E. Hjertenaes, S. Hoest, I.-M. Hoeyvik,
       M. F. Iozzi, B. Jansik, H. J. Aa. Jensen, D. Jonsson,
       P. Joergensen, J. Kauczor, S. Kirpekar,
       T. Kjaergaard, W. Klopper, S. Knecht, R. Kobayashi, H. Koch,
       J. Kongsted, A. Krapp, K. Kristensen, A. Ligabue,
       O. B. Lutnaes, J. I. Melo, K. V. Mikkelsen, R. H. Myhre,
       C. Neiss, C. B. Nielsen, P. Norman, J. Olsen,
       J. M. H. Olsen, A. Osted, M. J. Packer, F. Pawlowski,
       T. B. Pedersen, P. F. Provasi, S. Reine, Z. Rinkevicius,
       T. A. Ruden, K. Ruud, V. Rybkin, P. Salek, C. C. M. Samson,
       A. Sanchez de Meras, T. Saue, S. P. A. Sauer,
       B. Schimmelpfennig, K. Sneskov, A. H. Steindal,
       K. O. Sylvester-Hvid, P. R. Taylor, A. M. Teale,
       E. I. Tellgren, D. P. Tew, A. J. Thorvaldsen, L. Thoegersen,
       O. Vahtras, M. A. Watson, D. J. D. Wilson, M. Ziolkowski
       and H. Agren,
       "The Dalton quantum chemistry program system",
       WIREs Comput. Mol. Sci. 2014, 4:269–284 (doi: 10.1002/wcms.1172)
     
    and
     
       Dalton, a molecular electronic structure program,
       Release Dalton2020.0 (2020), see http://daltonprogram.org
   ----------------------------------------------------------------------------

    Authors in alphabetical order (Major contribution(s) in parenthesis):

  Kestutis Aidas,           Vilnius University,           Lithuania   (QM/MM)
  Celestino Angeli,         University of Ferrara,        Italy       (NEVPT2)
  Keld L. Bak,              UNI-C,                        Denmark     (AOSOPPA, non-adiabatic coupling, magnetic properties)
  Vebjoern Bakken,          University of Oslo,           Norway      (DALTON; geometry optimizer, symmetry detection)
  Radovan Bast,             UiT The Arctic U. of Norway,  Norway      (DALTON installation and execution frameworks)
  Pablo Baudin,             University of Valencia,       Spain       (Cholesky excitation energies)
  Linus Boman,              NTNU,                         Norway      (Cholesky decomposition and subsystems)
  Bruno N. Cabral Tenorio,  Technical Univ. of Denmark,   Denmark     (Lanczos-based CC methods)
  Ove Christiansen,         Aarhus University,            Denmark     (CC module)
  Renzo Cimiraglia,         University of Ferrara,        Italy       (NEVPT2)
  Sonia Coriani,            Technical Univ. of Denmark,   Denmark     (CC and RESPONS modules)
  Janusz Cukras,            University of Warsaw,         Poland      (MChD in RESPONS)
  Paal Dahle,               University of Oslo,           Norway      (Parallelization)
  Erik K. Dalskov,          UNI-C,                        Denmark     (SOPPA)
  Thomas Enevoldsen,        Univ. of Southern Denmark,    Denmark     (SOPPA)
  Janus J. Eriksen,         Aarhus University,            Denmark     (Polarizable embedding, TDA)
  Rasmus Faber,             Technical Univ. of Denmark,   Denmark     (Vib.avg. NMR w. SOPPA, parallel AO-SOPPA, CVS-CC and EOMCC)
  Tobias Fahleson,          KTH Stockholm,                Sweden      (Damped cubic response)
  Berta Fernandez,          U. of Santiago de Compostela, Spain       (Doublet spin, ESR in RESPONS)
  Lara Ferrighi,            Aarhus University,            Denmark     (PCM Cubic response)
  Heike Fliegl,             University of Oslo,           Norway      (CCSD(R12))
  Luca Frediani,            UiT The Arctic U. of Norway,  Norway      (PCM)
  Emmanuel Fromager,        Univ. Strasbourg,             France      (MC-srDFT)
  Bin Gao,                  UiT The Arctic U. of Norway,  Norway      (Gen1Int library)
  Andre S. P. Gomes,        CNRS/Universite de Lille,     France      (Frozen density embedding)
  Christof Haettig,         Ruhr-University Bochum,       Germany     (CC module)
  Kasper Hald,              Aarhus University,            Denmark     (CC module)
  Asger Halkier,            Aarhus University,            Denmark     (CC module)
  Frederik Beyer Hansen,    University of Copenhagen,     Denmark     (Parallel AO-SOPPA)
  Erik D. Hedegaard,        Univ. of Southern Denmark,    Denmark     (Polarizable embedding, QM/MM, and MC-srDFT)
  Hanne Heiberg,            University of Oslo,           Norway      (Geometry analysis, selected one-electron integrals)
  Trygve Helgaker,          University of Oslo,           Norway      (DALTON; ABACUS, ERI, DFT modules, London, and much more)
  Alf Christian Hennum,     University of Oslo,           Norway      (Parity violation)
  Hinne Hettema,            University of Auckland,       New Zealand (Quadratic response in RESPONS; SIRIUS supersymmetry)
  Eirik Hjertenaes,         NTNU,                         Norway      (Cholesky decomposition)
  Pi A. B. Haase,           University of Copenhagen,     Denmark     (Triplet AO-SOPPA)
  Maria Francesca Iozzi,    University of Oslo,           Norway      (RPA)
  Christoph Jacob           TU Braunschweig               Germany     (Frozen density embedding)
  Brano Jansik              Technical Univ. of Ostrava    Czech Rep.  (DFT cubic response)
  Hans Joergen Aa. Jensen,  Univ. of Southern Denmark,    Denmark     (DALTON; SIRIUS, RESPONS, ABACUS, MC-srDFT, and much more)
  Dan Jonsson,              UiT The Arctic U. of Norway,  Norway      (Cubic response in RESPONS module)
  Poul Joergensen,          Aarhus University,            Denmark     (RESPONS, ABACUS, and CC modules)
  Maciej Kaminski,          University of Warsaw,         Poland      (CPPh in RESPONS)
  Joanna Kauczor,           Linkoeping University,        Sweden      (Complex polarization propagator (CPP) module)
  Sheela Kirpekar,          Univ. of Southern Denmark,    Denmark     (Mass-velocity & Darwin integrals)
  Erik Kjellgren,           Univ. of Southern Denmark,    Denmark     (MC-srDFT)
  Wim Klopper,              KIT Karlsruhe,                Germany     (R12 code in CC, SIRIUS, and ABACUS modules)
  Stefan Knecht,            ETH Zurich,                   Switzerland (Parallel CI and MCSCF, MC-srDFT)
  Rika Kobayashi,           Australian National Univ.,    Australia   (DIIS in CC, London in MCSCF)
  Henrik Koch,              NTNU,                         Norway      (CC module, Cholesky decomposition)
  Jacob Kongsted,           Univ. of Southern Denmark,    Denmark     (Polarizable embedding, polarizable density embedding, QM/MM)
  Andrea Ligabue,           University of Modena,         Italy       (CTOCD, AOSOPPA)
  Nanna H. List             Univ. of Southern Denmark,    Denmark     (Polarizable embedding)
  Ola B. Lutnaes,           University of Oslo,           Norway      (DFT Hessian)
  Juan I. Melo,             University of Buenos Aires,   Argentina   (LRESC, Relativistic Effects on NMR Shieldings)
  Kurt V. Mikkelsen,        University of Copenhagen,     Denmark     (MC-SCRF and QM/MM)
  Rolf H. Myhre,            NTNU,                         Norway      (Subsystems and CC3)
  Christian Neiss,          Univ. Erlangen-Nuernberg,     Germany     (CCSD(R12))
  Christian B. Nielsen,     University of Copenhagen,     Denmark     (QM/MM)
  Patrick Norman,           KTH Stockholm,                Sweden      (Cubic response and complex frequency response in RESPONS)
  Jeppe Olsen,              Aarhus University,            Denmark     (SIRIUS CI/density modules)
  Jogvan Magnus H. Olsen,   Aarhus University,            Denmark     (Polarizable embedding and polarizable density embedding)
  Anders Osted,             Copenhagen University,        Denmark     (QM/MM)
  Martin J. Packer,         University of Sheffield,      UK          (SOPPA)
  Filip Pawlowski,          Kazimierz Wielki University,  Poland      (CC3)
  Morten N. Pedersen,       Univ. of Southern Denmark,    Denmark     (Polarizable embedding)
  Thomas B. Pedersen,       University of Oslo,           Norway      (Cholesky decomposition)
  Patricio F. Provasi,      University of Northeastern,   Argentina   (Analysis of coupling constants in localized orbitals)
  Peter Reinholdt,          Univ. of Southern Denmark,    Denmark     (Polarizable embedding and polarizable density embedding)
  Zilvinas Rinkevicius,     KTH Stockholm,                Sweden      (open-shell DFT, ESR)
  Elias Rudberg,            KTH Stockholm,                Sweden      (DFT grid and basis info)
  Torgeir A. Ruden,         University of Oslo,           Norway      (Numerical derivatives in ABACUS)
  Kenneth Ruud,             UiT The Arctic U. of Norway,  Norway      (DALTON; ABACUS magnetic properties and much more)
  Pawel Salek,              KTH Stockholm,                Sweden      (DALTON; DFT code)
  Claire C. M. Samson       University of Karlsruhe       Germany     (Boys localization, r12 integrals in ERI)
  Alfredo Sanchez de Meras, University of Valencia,       Spain       (CC module, Cholesky decomposition)
  Trond Saue,               Paul Sabatier University,     France      (direct Fock matrix construction)
  Stephan P. A. Sauer,      University of Copenhagen,     Denmark     (SOPPA(CCSD), SOPPA prop., AOSOPPA, vibrational g-factors)
  Bernd Schimmelpfennig,    Forschungszentrum Karlsruhe,  Germany     (AMFI module)
  Anna K. Schnack-Petersen, University of Copenhagen,     Denmark     (RPA(D) and HRPA(D) properties in AOSOPPA)
  Kristian Sneskov,         Aarhus University,            Denmark     (Polarizable embedding, QM/MM)
  Arnfinn H. Steindal,      UiT The Arctic U. of Norway,  Norway      (parallel QM/MM, polarizable embedding)
  Casper Steinmann,         Aalborg University,           Denmark     (QFIT, polarizable embedding)
  K. O. Sylvester-Hvid,     University of Copenhagen,     Denmark     (MC-SCRF)
  Peter R. Taylor,          VLSCI/Univ. of Melbourne,     Australia   (Symmetry handling ABACUS, integral transformation)
  Andrew M. Teale,          University of Nottingham,     England     (DFT-AC, DFT-D)
  David P. Tew,             University of Bristol,        England     (CCSD(R12))
  Julien Toulouse,          Sorbonne Univ.,               France      (MC-srDFT)
  Olav Vahtras,             KTH Stockholm,                Sweden      (Triplet response, spin-orbit, ESR, TDDFT, open-shell DFT)
  Lucas Visscher,           Vrije Universiteit Amsterdam, Netherlands (Frozen density embedding)
  David J. Wilson,          La Trobe University,          Australia   (DFT Hessian and DFT magnetizabilities)
  Hans Agren,               KTH Stockholm,                Sweden      (SIRIUS module, RESPONS, MC-SCRF solvation)
 --------------------------------------------------------------------------------

     Date and time (Linux)  : Tue Jul 23 13:52:26 2024
     Host name              : dn012                                   

 * Work memory size             :    64000000 =  488.28 megabytes.

 * Directories for basis set searches:
   1) /gpfs/projects/rjh/adrian/beta_paper_database/dalton/hf/PH3/dipole
   2) /gpfs/projects/rjh/adrian/dalton/build/basis


Compilation information
-----------------------

 Who compiled             | ahurtado
 Host                     | sn-mem
 System                   | Linux-3.10.0-1160.81.1.el7.x86_64
 CMake generator          | Unix Makefiles
 Processor                | x86_64
 64-bit integers          | OFF
 MPI                      | ON
 Fortran compiler         | /gpfs/software/intel/oneAPI/2021_4/mpi/2021.4.0/bi
                          | n/mpiifort
 Fortran compiler version | unknown
 C compiler               | /gpfs/software/intel/oneAPI/2021_4/mpi/2021.4.0/bi
                          | n/mpiicc
 C compiler version       | unknown
 C++ compiler             | /gpfs/software/intel/oneAPI/2021_4/mpi/2021.4.0/bi
                          | n/mpiicpc
 C++ compiler version     | unknown
 Static linking           | OFF
 Last Git revision        | 66052b3af5ea7225e31178bf9a8b031913c72190
 Git branch               | (HEAD detached at Dalton2020.0)
 Configuration time       | 2024-05-30 10:57:17.145493

 * MPI parallel run using 38 processes.


   Content of the .dal input file
 ----------------------------------

**DALTON INPUT
.RUN RESPONSE
.DIRECT
**WAVE FUNCTIONS
.HF
**PROPERTIES
**RESPONSE
*QUADRA
.DIPLEN
.FREQUENCIES
5
0.0 0.0164705 0.032941 0.0494115 0.065882
**END OF DALTON INPUT


   Content of the .mol file
 ----------------------------

BASIS
q-aug-cc-pVTZ
blah
blah
Atomtype=2 Angstrom Charge=0 Nosymmmetry
Charge=15 Atoms=1
P_a 0.000000000000 0.000000000000 0.000000000000
Charge=1 Atoms=3
H_a 0.000000000000 -1.193199998467 -0.771699999462
H_b 1.033300002415 0.596600001880 -0.771699999462
H_c -1.033300002415 0.596600001880 -0.771699999462


       *******************************************************************
       *********** Output from DALTON general input processing ***********
       *******************************************************************

 --------------------------------------------------------------------------------
   Overall default print level:    0
   Print level for DALTON.STAT:    1

    Parallel calculation using MPI
    AO-direct calculation (in sections where implemented)
    HERMIT 1- and 2-electron integral sections will be executed
    "Old" integral transformation used (limited to max 255 basis functions)
    Wave function sections will be executed (SIRIUS module)
    Dynamic molecular response properties section will be executed (RESPONSE module)
 --------------------------------------------------------------------------------


   ****************************************************************************
   *************** Output of molecule and basis set information ***************
   ****************************************************************************


    The two title cards from your ".mol" input:
    ------------------------------------------------------------------------
 1: blah                                                                    
 2: blah                                                                    
    ------------------------------------------------------------------------

  Coordinates are entered in Angstrom and converted to atomic units.
          - Conversion factor : 1 bohr = 0.52917721 A

  Atomic type no.    1
  --------------------
  Nuclear charge:  15.00000
  Number of symmetry independent centers:    1
  Number of basis sets to read;    2
  Basis set file used for this atomic type with Z =  15 :
     "/gpfs/projects/rjh/adrian/dalton/build/basis/aug-cc-pVTZ"

  Atomic type no.    2
  --------------------
  Nuclear charge:   1.00000
  Number of symmetry independent centers:    3
  Number of basis sets to read;    2
  Basis set file used for this atomic type with Z =   1 :
     "/gpfs/projects/rjh/adrian/dalton/build/basis/aug-cc-pVTZ"


                         SYMGRP: Point group information
                         -------------------------------

@    Point group: C1 


                                 Isotopic Masses
                                 ---------------

                           P_a        30.973763
                           H_a         1.007825
                           H_b         1.007825
                           H_c         1.007825

                       Total mass:    33.997238 amu
                       Natural abundance:  99.955 %

 Center-of-mass coordinates (a.u.):    0.000000    0.000000   -0.129691
 Center-of-mass coordinates (Angs):    0.000000    0.000000   -0.068630


  Atoms and basis sets
  --------------------

  Number of atom types :    2
  Total number of atoms:    4

  Basis set used is "q-aug-cc-pVTZ" from the basis set library.

  label    atoms   charge   prim   cont     basis
  ----------------------------------------------------------------------
  P_          1   15.0000   123    98      [19s13p6d5f|9s8p6d5f]                              
  H_          3    1.0000    52    50      [9s6p5d|7s6p5d]                                    
  ----------------------------------------------------------------------
  total:      4   18.0000   279   248
  ----------------------------------------------------------------------
  Spherical harmonic basis used.

  Threshold for neglecting AO integrals:  1.00D-12


  Cartesian Coordinates (a.u.)
  ----------------------------

  Total number of coordinates:   12
  P_a     :     1  x   0.0000000000    2  y   0.0000000000    3  z   0.0000000000
  H_a     :     4  x   0.0000000000    5  y  -2.2548212094    6  z  -1.4583016496
  H_b     :     7  x   1.9526540095    8  y   1.1274106097    9  z  -1.4583016496
  H_c     :    10  x  -1.9526540095   11  y   1.1274106097   12  z  -1.4583016496


   Interatomic separations (in Angstrom):
   --------------------------------------

            P_a         H_a         H_b         H_c   
            ------      ------      ------      ------
 P_a   :    0.000000
 H_a   :    1.421002    0.000000
 H_b   :    1.420972    2.066662    0.000000
 H_c   :    1.420972    2.066662    2.066600    0.000000


  Max    interatomic separation is    2.0667 Angstrom (    3.9054 Bohr)
  between atoms    3 and    2, "H_b   " and "H_a   ".

  Min HX interatomic separation is    1.4210 Angstrom (    2.6852 Bohr)


  Bond distances (Angstrom):
  --------------------------

                  atom 1     atom 2       distance
                  ------     ------       --------
  bond distance:  H_a        P_a          1.421002
  bond distance:  H_b        P_a          1.420972
  bond distance:  H_c        P_a          1.420972


  Bond angles (degrees):
  ----------------------

                  atom 1     atom 2     atom 3         angle
                  ------     ------     ------         -----
  bond angle:     H_a        P_a        H_b           93.303
  bond angle:     H_a        P_a        H_c           93.303
  bond angle:     H_b        P_a        H_c           93.301




 Principal moments of inertia (u*A**2) and principal axes
 --------------------------------------------------------

   IA       3.792542          0.000000    1.000000   -0.000000
   IB       3.792715          1.000000    0.000000    0.000000
   IC       4.304428          0.000000    0.000000    1.000000


 Rotational constants
 --------------------

               A                   B                   C

         133255.9944         133249.9191         117409.1033 MHz
            4.444942            4.444739            3.916346 cm-1


@  Nuclear repulsion energy :   17.526280706353 Hartree


                     .---------------------------------------.
                     | Starting in Integral Section (HERMIT) |
                     `---------------------------------------'



 ***************************************************************************************
 ****************** Output from **INTEGRALS input processing (HERMIT) ******************
 ***************************************************************************************


 - Using defaults, no **INTEGRALS input found

 Default print level:        1

 Calculation of one-electron Hamiltonian integrals.

 Center of mass  (bohr):      0.000000000000      0.000000000297     -0.129691081968
 Operator center (bohr):      0.000000000000      0.000000000000      0.000000000000
 Gauge origin    (bohr):      0.000000000000      0.000000000000      0.000000000000
 Dipole origin   (bohr):      0.000000000000      0.000000000000      0.000000000000


     ************************************************************************
     ************************** Output from HERINT **************************
     ************************************************************************



                      Nuclear contribution to dipole moments
                      --------------------------------------

                 au               Debye          C m (/(10**-30)

      x      0.00000000         0.00000000         0.00000000
      y      0.00000001         0.00000003         0.00000008
      z     -4.37490495       -11.11989850       -37.09198882


  Time used in GABGEN     is       0.42 seconds
  Total CPU  time used in HERMIT:   0.64 seconds
  Total wall time used in HERMIT:   0.65 seconds


                        .----------------------------------.
                        | End of Integral Section (HERMIT) |
                        `----------------------------------'



                   .--------------------------------------------.
                   | Starting in Wave Function Section (SIRIUS) |
                   `--------------------------------------------'



@ Primary orbitals are deleted during canonical orthonormalization
@   because of detected numerical linear dependence or too large coefficients.
@ Eigenvalue threshold for num. lin. dep. =  1.00D-06

@   5 MO components are deleted in symmetry    1
 Overlap eigenvalues of the deleted orbitals:
  4.98D-07  4.98D-07  4.37D-07  1.57D-07  1.57D-07

 Max MO coeff. of last deleted MO & limit:  1.07D+03  1.00D+03

WARNING: Orbitals have been deleted because of numerical
   linear dependence although not requested in input.

 *** Output from Huckel module :

     Using EWMO model:          T
     Using EHT  model:          F
     Number of Huckel orbitals each symmetry:   17

 EWMO - Energy Weighted Maximum Overlap - is a Huckel type method,
        which normally is better than Extended Huckel Theory.
 Reference: Linderberg and Ohrn, Propagators in Quantum Chemistry (Wiley, 1973)

 Huckel EWMO eigenvalues for symmetry :  1
          -79.989138      -7.539621      -5.419453      -5.419453      -5.419331
           -1.162139      -0.617917      -0.617908      -0.435032      -0.171097
           -0.171096      -0.123482      -0.055556      -0.055556      -0.055288
           -0.028356      -0.028355

 **********************************************************************
 *SIRIUS* a direct, restricted step, second order MCSCF program       *
 **********************************************************************

 
     Date and time (Linux)  : Tue Jul 23 13:52:27 2024
     Host name              : dn012                                   

 Title lines from ".mol" input file:
     blah                                                                    
     blah                                                                    

 Print level on unit LUPRI =   2 is   0
 Print level on unit LUW4  =   2 is   5

@    Restricted, closed shell Hartree-Fock calculation.

@    Time-dependent Hartree-Fock calculation (random phase approximation).
 Fock matrices are calculated directly and in parallel without use of integrals on disk.

 Initial molecular orbitals are obtained according to
 ".MOSTART EWMO  " input option

     Wave function specification
     ============================
@    Wave function type        --- HF ---
@    Number of closed shell electrons          18
@    Number of electrons in active shells       0
@    Total charge of the molecule               0

@    Spin multiplicity and 2 M_S                1         0
@    Total number of symmetries                 1 (point group: C1 )
@    Reference state symmetry                   1 (irrep name : A  )

     Orbital specifications
     ======================
@    Abelian symmetry species          All |    1
@                                          |  A  
                                       --- |  ---
@    Occupied SCF orbitals               9 |    9
@    Secondary orbitals                234 |  234
@    Total number of orbitals          243 |  243
@    Number of basis functions         248 |  248

     Optimization information
     ========================
@    Number of configurations                 1
@    Number of orbital rotations           2106
     ------------------------------------------
@    Total number of variables             2107

     Maximum number of Fock   iterations      0
     Maximum number of DIIS   iterations     60
     Maximum number of QC-SCF iterations     60
     Threshold for SCF convergence     1.00D-05


 ***********************************************
 ***** DIIS acceleration of SCF iterations *****
 ***********************************************

 C1-DIIS algorithm; max error vectors =    8

 Iter      Total energy        Error norm    Delta(E)  DIIS dim.
 -----------------------------------------------------------------------------
   1  Screening settings (-IFTHRS, JTDIIS, DIFDEN, times)   -8    1    T  1.95D+00  1.96D+00
@  1    -342.354543993        1.18403D+00   -3.42D+02    1
      Virial theorem: -V/T =      2.002676
@    MULPOP   P_a     0.68; H_a    -0.23; H_b    -0.23; H_c    -0.23; 
   1  Level shift: doubly occupied orbital energies shifted by -2.00D-01
 -----------------------------------------------------------------------------
   2  Screening settings (-IFTHRS, JTDIIS, DIFDEN, times)   -8    2    T  1.89D+00  1.90D+00
@  2    -342.479799251        2.62029D-01   -1.25D-01    2
      Virial theorem: -V/T =      1.999081
@    MULPOP   P_a     0.18; H_a    -0.06; H_b    -0.06; H_c    -0.06; 
   2  Level shift: doubly occupied orbital energies shifted by -5.00D-02
 -----------------------------------------------------------------------------
   3  Screening settings (-IFTHRS, JTDIIS, DIFDEN, times)  -12    3    F  1.87D+00  1.88D+00
@  3    -342.486639066        7.73152D-02   -6.84D-03    3
      Virial theorem: -V/T =      2.000272
@    MULPOP   P_a     0.05; H_a    -0.02; H_b    -0.02; H_c    -0.02; 
   3  Level shift: doubly occupied orbital energies shifted by -2.50D-02
 -----------------------------------------------------------------------------
   4  Screening settings (-IFTHRS, JTDIIS, DIFDEN, times)  -12    4    T  1.88D+00  1.89D+00
@  4    -342.487575889        2.08673D-02   -9.37D-04    4
      Virial theorem: -V/T =      2.000116
@    MULPOP   P_a     0.00; H_a    -0.00; H_b    -0.00; H_c    -0.00; 
   4  Level shift: doubly occupied orbital energies shifted by -1.25D-02
 -----------------------------------------------------------------------------
   5  Screening settings (-IFTHRS, JTDIIS, DIFDEN, times)  -12    5    T  1.88D+00  1.89D+00
@  5    -342.487687624        4.80548D-03   -1.12D-04    5
      Virial theorem: -V/T =      2.000165
@    MULPOP   P_a    -0.01; H_a     0.00; H_b     0.00; H_c     0.00; 
 -----------------------------------------------------------------------------
   6  Screening settings (-IFTHRS, JTDIIS, DIFDEN, times)  -12    6    T  1.94D+00  1.95D+00
@  6    -342.487695196        6.68797D-04   -7.57D-06    6
      Virial theorem: -V/T =      2.000166
@    MULPOP   P_a    -0.01; H_a     0.00; H_b     0.00; H_c     0.00; 
 -----------------------------------------------------------------------------
   7  Screening settings (-IFTHRS, JTDIIS, DIFDEN, times)  -12    7    T  1.92D+00  1.93D+00
@  7    -342.487695338        1.29644D-04   -1.42D-07    7
      Virial theorem: -V/T =      2.000167
@    MULPOP   P_a    -0.01; H_a     0.00; H_b     0.00; H_c     0.00; 
 -----------------------------------------------------------------------------
   8  Screening settings (-IFTHRS, JTDIIS, DIFDEN, times)  -12    8    T  1.90D+00  1.91D+00
@  8    -342.487695343        2.76231D-05   -4.17D-09    8
      Virial theorem: -V/T =      2.000167
@    MULPOP   P_a    -0.01; H_a     0.00; H_b     0.00; H_c     0.00; 
 -----------------------------------------------------------------------------
   9  Screening settings (-IFTHRS, JTDIIS, DIFDEN, times)  -12    9    T  1.92D+00  1.93D+00
@  9    -342.487695343        3.90071D-06   -1.57D-10    8

@ *** DIIS converged in   9 iterations !
@     Converged SCF energy, gradient:   -342.487695342812    3.90D-06
    - total time used in SIRFCK :              0.00 seconds


 *** SCF orbital energy analysis ***

 Only the 20 lowest virtual orbital energies printed in each symmetry.

 Number of electrons :   18
 Orbital occupations :    9

 Sym       Hartree-Fock orbital energies

1 A     -79.94700356    -7.48947927    -5.38287687    -5.38287676    -5.38196765
         -0.85446188    -0.52008649    -0.52008544    -0.38866274     0.00047767
          0.00075930     0.00075930     0.00176634     0.00256732     0.00270216
          0.00270216     0.00440736     0.00440737     0.00457388     0.00457388
          0.00467013     0.00589660     0.00670080     0.00671153     0.00671153
          0.00772977     0.01121659     0.01121662     0.01142509

    E(LUMO) :     0.00047767 au (symmetry 1)
  - E(HOMO) :    -0.38866274 au (symmetry 1)
  ------------------------------------------
    gap     :     0.38914041 au

 --- Writing SIRIFC interface file

 CPU and wall time for SCF :      17.653      17.770


                       .-----------------------------------.
                       | --- Final results from SIRIUS --- |
                       `-----------------------------------'


@    Spin multiplicity:           1
@    Spatial symmetry:            1 ( irrep  A   in C1  )
@    Total charge of molecule:    0

@    Final HF energy:            -342.487695342812                 
@    Nuclear repulsion:            17.526280706353
@    Electronic energy:          -360.013976049165

@    Final gradient norm:           0.000003900707

 
     Date and time (Linux)  : Tue Jul 23 13:52:45 2024
     Host name              : dn012                                   

File label for MO orbitals:  23Jul24   FOCKDIIS

 (Only coefficients > 0.0100 are printed.)

 Molecular orbitals for symmetry species 1  (A  )
 ------------------------------------------------

    Orbital         1        2        3        4        5        6        7
   1 P_a :1s    -1.0001  -0.0005  -0.0000   0.0000  -0.0005   0.0006  -0.0000
   2 P_a :1s    -0.0004   0.9970  -0.0000  -0.0000  -0.0079  -0.0055  -0.0000
   3 P_a :1s    -0.0006  -0.0040   0.0000   0.0000  -0.0016   0.8057   0.0000
   5 P_a :1s     0.0012   0.0098  -0.0000  -0.0000  -0.0059  -0.1251  -0.0000
   6 P_a :1s     0.0003  -0.0008  -0.0000  -0.0000   0.0048  -0.1488  -0.0000
   7 P_a :1s     0.0001  -0.0025  -0.0000   0.0000   0.0164  -0.1659  -0.0000
   8 P_a :1s    -0.0001   0.0002   0.0000  -0.0000  -0.0017   0.0178   0.0000
   9 P_a :1s    -0.0000   0.0001  -0.0000  -0.0000  -0.0010   0.0126  -0.0000
  10 P_a :2px    0.0000  -0.0000  -0.9977   0.0000  -0.0000   0.0000  -0.0002
  11 P_a :2py    0.0000  -0.0000   0.0000   0.9977  -0.0001  -0.0000   0.0176
  12 P_a :2pz    0.0002  -0.0042  -0.0000  -0.0001  -0.9992   0.0161  -0.0000
  14 P_a :2py    0.0000   0.0000   0.0000  -0.0068   0.0000   0.0000  -0.6413
  15 P_a :2pz    0.0003   0.0022  -0.0000   0.0000   0.0047  -0.1243   0.0000
  20 P_a :2py    0.0000   0.0000  -0.0000   0.0046  -0.0000  -0.0000   0.0198
  21 P_a :2pz   -0.0005  -0.0034   0.0000   0.0000  -0.0016   0.0897  -0.0000
  23 P_a :2py   -0.0000  -0.0000   0.0000  -0.0031   0.0000  -0.0000   0.0768
  24 P_a :2pz    0.0000   0.0002  -0.0000   0.0000   0.0021   0.0442  -0.0000
  26 P_a :2py   -0.0000  -0.0000  -0.0000   0.0013  -0.0000  -0.0000   0.0302
  27 P_a :2pz    0.0000   0.0000  -0.0000   0.0000  -0.0005   0.0217  -0.0000
  35 P_a :3d1-  -0.0000   0.0000  -0.0000  -0.0011   0.0000  -0.0000   0.0562
  38 P_a :3d2+   0.0000  -0.0000   0.0000   0.0001  -0.0000   0.0000  -0.0431
  40 P_a :3d1-   0.0000   0.0000  -0.0000   0.0034  -0.0000  -0.0000   0.0745
  43 P_a :3d2+   0.0000   0.0000  -0.0000  -0.0002  -0.0000   0.0000  -0.0543
  45 P_a :3d1-   0.0000   0.0000   0.0000  -0.0014   0.0000  -0.0000   0.0339
  50 P_a :3d1-   0.0000   0.0000  -0.0000   0.0011  -0.0000  -0.0000  -0.0308
  53 P_a :3d2+  -0.0000  -0.0000  -0.0000   0.0016  -0.0000  -0.0000   0.0158
  55 P_a :3d1-  -0.0000  -0.0000  -0.0000   0.0027  -0.0000  -0.0000  -0.0434
  56 P_a :3d0    0.0000  -0.0004  -0.0000   0.0000   0.0014  -0.0198  -0.0000
  60 P_a :3d1-   0.0000  -0.0000  -0.0000   0.0004  -0.0000  -0.0000  -0.0149
  61 P_a :3d0    0.0000  -0.0001   0.0000   0.0000   0.0011  -0.0145  -0.0000
  69 P_a :4f2+  -0.0000  -0.0000  -0.0000  -0.0001   0.0000  -0.0000   0.0196
  99 H_a :1s     0.0000   0.0009  -0.0000  -0.0020   0.0012   0.3262   0.6583
 100 H_a :1s     0.0000   0.0004   0.0000  -0.0023   0.0004  -0.0416  -0.1045
 101 H_a :1s    -0.0004  -0.0027  -0.0000   0.0037  -0.0008  -0.0605  -0.1997
 102 H_a :1s    -0.0001   0.0009  -0.0000  -0.0386  -0.0058   0.0736   0.4579
 103 H_a :1s     0.0000   0.0000  -0.0000   0.0028   0.0000   0.0002  -0.0293
 110 H_a :2py    0.0000   0.0003   0.0000  -0.0008   0.0008   0.0121  -0.0060
 113 H_a :2py   -0.0001  -0.0010  -0.0000  -0.0004   0.0012  -0.0006  -0.0231
 114 H_a :2pz   -0.0000  -0.0004   0.0000   0.0006  -0.0000  -0.0024  -0.0154
 116 H_a :2py   -0.0000  -0.0004  -0.0000  -0.0118   0.0036  -0.0008   0.0765
 119 H_a :2py   -0.0000   0.0004   0.0000   0.0009  -0.0026   0.0360  -0.0118
 120 H_a :2pz   -0.0000   0.0000  -0.0000   0.0049   0.0000  -0.0048  -0.0720
 149 H_b :1s     0.0000   0.0009  -0.0018   0.0010   0.0012   0.3262  -0.3214
 150 H_b :1s     0.0000   0.0004  -0.0020   0.0012   0.0004  -0.0416   0.0510
 151 H_b :1s    -0.0004  -0.0027   0.0032  -0.0018  -0.0008  -0.0605   0.0975
 152 H_b :1s    -0.0001   0.0009  -0.0335   0.0193  -0.0058   0.0736  -0.2235
 153 H_b :1s     0.0000   0.0000   0.0024  -0.0014   0.0000   0.0002   0.0143
 159 H_b :2px   -0.0000  -0.0002   0.0004  -0.0007  -0.0007  -0.0105   0.0007
 162 H_b :2px    0.0001   0.0009   0.0002  -0.0005  -0.0010   0.0006  -0.0185
 165 H_b :2px    0.0000   0.0004   0.0090  -0.0047  -0.0032   0.0007   0.0190
 166 H_b :2py    0.0000   0.0002   0.0047  -0.0036  -0.0018   0.0004   0.0418
 168 H_b :2px    0.0000  -0.0003  -0.0003   0.0009   0.0023  -0.0312  -0.0007
 169 H_b :2py    0.0000  -0.0002  -0.0009  -0.0007   0.0013  -0.0180  -0.0102
 170 H_b :2pz   -0.0000   0.0000   0.0043  -0.0025   0.0000  -0.0048   0.0352
 190 H_b :3d1-   0.0000  -0.0000   0.0001  -0.0007   0.0000  -0.0006   0.0107
 199 H_c :1s     0.0000   0.0009   0.0018   0.0010   0.0012   0.3262  -0.3369
 200 H_c :1s     0.0000   0.0004   0.0020   0.0012   0.0004  -0.0416   0.0535
 201 H_c :1s    -0.0004  -0.0027  -0.0032  -0.0018  -0.0008  -0.0605   0.1022
 202 H_c :1s    -0.0001   0.0009   0.0335   0.0193  -0.0058   0.0736  -0.2344
 203 H_c :1s     0.0000   0.0000  -0.0024  -0.0014   0.0000   0.0002   0.0150
 209 H_c :2px    0.0000   0.0002   0.0004   0.0007   0.0007   0.0105  -0.0005
 212 H_c :2px   -0.0001  -0.0009   0.0002   0.0005   0.0010  -0.0006   0.0188
 215 H_c :2px   -0.0000  -0.0004   0.0090   0.0047   0.0032  -0.0007  -0.0207
 216 H_c :2py    0.0000   0.0002  -0.0047  -0.0036  -0.0018   0.0004   0.0424
 218 H_c :2px   -0.0000   0.0003  -0.0003  -0.0009  -0.0023   0.0312   0.0010
 219 H_c :2py    0.0000  -0.0002   0.0009  -0.0007   0.0013  -0.0180  -0.0103
 220 H_c :2pz   -0.0000   0.0000  -0.0043  -0.0025   0.0000  -0.0048   0.0369
 240 H_c :3d1-   0.0000  -0.0000  -0.0001  -0.0007   0.0000  -0.0006   0.0107

    Orbital         8        9       10       11       12       13       14
   3 P_a :1s    -0.0000  -0.4239   0.0082  -0.0000   0.0000  -0.0002   0.0243
   5 P_a :1s    -0.0000  -0.1511   0.0275   0.0000   0.0000   0.0806  -0.0845
   6 P_a :1s    -0.0000  -0.0402   0.1256   0.0000   0.0000   0.1922  -0.4191
   7 P_a :1s     0.0000   0.0788   0.5641  -0.0000  -0.0000   0.3358  -1.9814
   8 P_a :1s    -0.0000  -0.0060   0.0461  -0.0000  -0.0000  -0.0269  -0.1800
   9 P_a :1s     0.0000  -0.0045  -1.2818   0.0000   0.0000   1.4003   4.9626
  10 P_a :2px   -0.0176  -0.0000   0.0000  -0.0000  -0.0004   0.0000   0.0000
  12 P_a :2pz    0.0000   0.0216  -0.0001  -0.0000   0.0000  -0.0009   0.0010
  13 P_a :2px    0.6413   0.0000   0.0000  -0.0000  -0.0009   0.0000   0.0000
  15 P_a :2pz   -0.0000  -0.7442  -0.0040  -0.0000   0.0000  -0.0064  -0.0052
  18 P_a :2pz   -0.0000  -0.0138   0.0001   0.0000  -0.0000   0.0007  -0.0007
  19 P_a :2px   -0.0198  -0.0000  -0.0000  -0.0000   0.0012  -0.0000  -0.0000
  21 P_a :2pz    0.0000  -0.0127  -0.0160  -0.0000  -0.0000  -0.0160   0.0548
  22 P_a :2px   -0.0768   0.0000  -0.0000   0.0000   0.0604  -0.0000  -0.0000
  23 P_a :2py   -0.0010   0.0000   0.0000   0.0604   0.0000  -0.0000   0.0000
  24 P_a :2pz    0.0000  -0.0221  -0.0285  -0.0000  -0.0000   0.1934   0.0960
  25 P_a :2px   -0.0302   0.0000  -0.0000  -0.0000   0.3423  -0.0000  -0.0000
  26 P_a :2py   -0.0004   0.0000  -0.0000   0.3423   0.0000  -0.0000   0.0000
  27 P_a :2pz    0.0000   0.0036  -0.0145   0.0000  -0.0000   0.5849   0.0442
  28 P_a :2px   -0.0084  -0.0000   0.0000  -0.0000   0.9589  -0.0000  -0.0000
  29 P_a :2py   -0.0001  -0.0000  -0.0000   0.9589   0.0000  -0.0000   0.0000
  30 P_a :2pz   -0.0000   0.0058   0.2211   0.0000  -0.0000   1.8513  -0.7429
  31 P_a :2px   -0.0019  -0.0000   0.0000  -0.0000   1.2414   0.0000   0.0000
  32 P_a :2py   -0.0000  -0.0000  -0.0000   1.2414   0.0000  -0.0000   0.0000
  33 P_a :2pz   -0.0000   0.0008   0.1646   0.0000  -0.0000   2.2623  -0.4058
  34 P_a :3d2-   0.0431   0.0000   0.0000   0.0000   0.0000   0.0000  -0.0000
  37 P_a :3d1+  -0.0562   0.0000  -0.0000  -0.0000  -0.0000  -0.0000   0.0000
  39 P_a :3d2-   0.0543  -0.0000  -0.0000  -0.0000  -0.0004   0.0000   0.0000
  42 P_a :3d1+  -0.0745   0.0000   0.0000   0.0000  -0.0003   0.0000   0.0000
  46 P_a :3d0   -0.0000   0.0221   0.0015  -0.0000   0.0000  -0.0129  -0.0048
  47 P_a :3d1+  -0.0339   0.0000   0.0000   0.0000  -0.0052   0.0000   0.0000
  49 P_a :3d2-  -0.0158  -0.0000   0.0000   0.0000   0.0268  -0.0000   0.0000
  51 P_a :3d0   -0.0000  -0.0242   0.0021   0.0000   0.0000  -0.1041  -0.0066
  52 P_a :3d1+   0.0308  -0.0000  -0.0000  -0.0000  -0.0061  -0.0000   0.0000
  53 P_a :3d2+  -0.0002  -0.0000   0.0000   0.0268   0.0000  -0.0000  -0.0000
  55 P_a :3d1-   0.0006  -0.0000  -0.0000   0.1613   0.0000  -0.0000  -0.0000
  56 P_a :3d0   -0.0000  -0.0004   0.1759  -0.0000   0.0000  -0.1946  -0.6370
  57 P_a :3d1+   0.0434  -0.0000  -0.0000  -0.0000   0.1613  -0.0000   0.0000
  59 P_a :3d2-   0.0009  -0.0000   0.0000  -0.0000   0.0914   0.0000  -0.0000
  60 P_a :3d1-   0.0002  -0.0000  -0.0000   0.3771   0.0000  -0.0000   0.0000
  61 P_a :3d0   -0.0000   0.0068   0.2229  -0.0000  -0.0000   0.2604  -0.7511
  62 P_a :3d1+   0.0149  -0.0000  -0.0000  -0.0000   0.3771   0.0000   0.0000
  63 P_a :3d2+   0.0000  -0.0000  -0.0000   0.0914  -0.0000   0.0000   0.0001
  65 P_a :4f2-  -0.0196   0.0000   0.0000   0.0000   0.0000   0.0000  -0.0000
  85 P_a :4f3-   0.0000   0.0053   0.0031  -0.0000  -0.0000   0.0049  -0.0101
  88 P_a :4f0    0.0000   0.0044  -0.0054  -0.0000  -0.0000   0.0186   0.0201
  92 P_a :4f3-   0.0000  -0.0019  -0.0269  -0.0000   0.0000  -0.0005   0.0971
  93 P_a :4f2-   0.0009   0.0000  -0.0000   0.0000   0.0138  -0.0000   0.0000
  94 P_a :4f1-  -0.0001   0.0000   0.0000  -0.0378  -0.0000   0.0000  -0.0000
  95 P_a :4f0    0.0000  -0.0002  -0.0346   0.0000   0.0000   0.0252   0.1252
  96 P_a :4f1+  -0.0044   0.0000   0.0000   0.0000  -0.0378   0.0000  -0.0000
  97 P_a :4f2+   0.0000  -0.0000   0.0000   0.0138   0.0000  -0.0000  -0.0000
  99 H_a :1s    -0.0090   0.2324   0.0003  -0.0006  -0.0000   0.0009   0.0003
 100 H_a :1s     0.0014  -0.0161  -0.0003   0.0007  -0.0000  -0.0010   0.0008
 101 H_a :1s     0.0027  -0.0203  -0.0183  -0.0041  -0.0000  -0.0284   0.0608
 102 H_a :1s    -0.0063  -0.0202  -0.1301  -0.0053   0.0000  -0.0883   0.4570
 103 H_a :1s     0.0004  -0.0005   0.1114  -0.0547  -0.0000  -0.0008  -0.4187
 104 H_a :1s    -0.0001   0.0006   0.4368  -0.5576  -0.0000  -0.3896  -1.7831
 105 H_a :1s    -0.0001  -0.0000  -0.4452  22.9406   0.0002   0.0599   0.4446
 112 H_a :2px   -0.0199  -0.0000   0.0000  -0.0000  -0.0043   0.0000   0.0000
 113 H_a :2py    0.0003  -0.0055  -0.0047  -0.0061  -0.0000  -0.0089   0.0194
 114 H_a :2pz    0.0002   0.0121  -0.0020  -0.0045   0.0000  -0.0152   0.0083
 115 H_a :2px   -0.0306  -0.0000   0.0000  -0.0000   0.0006  -0.0000   0.0000
 116 H_a :2py   -0.0010   0.0192  -0.0093  -0.0684   0.0000   0.0126   0.0409
 117 H_a :2pz    0.0001  -0.0051  -0.0106   0.0019   0.0000  -0.1267   0.0399
 118 H_a :2px    0.0097  -0.0000   0.0000  -0.0000  -0.1052  -0.0000   0.0000
 119 H_a :2py    0.0002  -0.0142  -0.4541  -0.1946   0.0000  -0.0261   1.6782
 120 H_a :2pz    0.0010  -0.0016  -0.0040   0.7100   0.0000  -0.3015   0.0285
 121 H_a :2px    0.0011  -0.0000   0.0000  -0.0000  -0.5395  -0.0000  -0.0000
 122 H_a :2py    0.0000   0.0001  -0.0083  -0.4268  -0.0000  -0.7566   0.3047
 123 H_a :2pz   -0.0000  -0.0013  -0.0552   0.1479   0.0000  -0.9413   0.2016
 140 H_a :3d1-  -0.0001  -0.0006  -0.0090  -0.0300   0.0000  -0.0214   0.0342
 141 H_a :3d0    0.0001   0.0015  -0.0335   0.0142   0.0000   0.0311   0.1218
 142 H_a :3d1+  -0.0112   0.0000   0.0000  -0.0000  -0.0364  -0.0000   0.0000
 143 H_a :3d2+   0.0000  -0.0005  -0.0013   0.0105   0.0000   0.0006   0.0035
 144 H_a :3d2-   0.0003   0.0000  -0.0000   0.0000  -0.2103  -0.0000   0.0000
 145 H_a :3d1-  -0.0000  -0.0026  -0.0709  -0.1360   0.0000  -0.2280   0.2343
 146 H_a :3d0    0.0001  -0.0018  -0.0620   0.1099  -0.0000  -0.1250   0.1978
 147 H_a :3d1+  -0.0042  -0.0000  -0.0000  -0.0000  -0.1216  -0.0000  -0.0000
 148 H_a :3d2+  -0.0000  -0.0005   0.0131   0.1467   0.0000   0.0198  -0.0595
 149 H_b :1s     0.5746   0.2323   0.0003   0.0003   0.0005   0.0009   0.0003
 150 H_b :1s    -0.0912  -0.0161  -0.0003  -0.0004  -0.0006  -0.0010   0.0008
 151 H_b :1s    -0.1743  -0.0203  -0.0183   0.0020   0.0035  -0.0284   0.0608
 152 H_b :1s     0.3997  -0.0202  -0.1301   0.0027   0.0046  -0.0882   0.4570
 153 H_b :1s    -0.0256  -0.0005   0.1115   0.0274   0.0474  -0.0008  -0.4187
 154 H_b :1s     0.0057   0.0006   0.4368   0.2788   0.4830  -0.3896  -1.7831
 155 H_b :1s     0.0040  -0.0000  -0.4452 -11.4702 -19.8681   0.0600   0.4444
 162 H_b :2px    0.0126   0.0048   0.0041  -0.0008  -0.0057   0.0077  -0.0168
 163 H_b :2py    0.0185   0.0028   0.0023  -0.0047  -0.0008   0.0045  -0.0097
 164 H_b :2pz   -0.0134   0.0121  -0.0020   0.0022   0.0039  -0.0152   0.0083
 165 H_b :2px   -0.0653  -0.0166   0.0080  -0.0299  -0.0512  -0.0109  -0.0354
 166 H_b :2py   -0.0204  -0.0096   0.0046  -0.0167  -0.0299  -0.0063  -0.0205
 167 H_b :2pz   -0.0069  -0.0051  -0.0106  -0.0009  -0.0016  -0.1267   0.0399
 168 H_b :2px    0.0113   0.0123   0.3933  -0.0387  -0.1722   0.0226  -1.4535
 169 H_b :2py    0.0010   0.0071   0.2270  -0.1275  -0.0388   0.0130  -0.8391
 170 H_b :2pz   -0.0629  -0.0016  -0.0040  -0.3550  -0.6149  -0.3014   0.0285
 171 H_b :2px    0.0016  -0.0001   0.0072   0.0488  -0.4549   0.6553  -0.2639
 172 H_b :2py    0.0003  -0.0000   0.0042  -0.5112   0.0486   0.3783  -0.1524
 173 H_b :2pz    0.0031  -0.0013  -0.0552  -0.0740  -0.1281  -0.9413   0.2017
 190 H_b :3d1-   0.0007   0.0003   0.0045  -0.0348   0.0027   0.0107  -0.0171
 191 H_b :3d0   -0.0049   0.0015  -0.0335  -0.0071  -0.0123   0.0311   0.1218
 192 H_b :3d1+  -0.0097   0.0006   0.0078   0.0027  -0.0316   0.0186  -0.0296
 194 H_b :3d2-  -0.0006   0.0004  -0.0114   0.1546   0.0575  -0.0172   0.0515
 195 H_b :3d1-   0.0006   0.0013   0.0354  -0.1252  -0.0062   0.1140  -0.1172
 196 H_b :3d0   -0.0049  -0.0018  -0.0620  -0.0549  -0.0952  -0.1249   0.1978
 197 H_b :3d1+  -0.0030   0.0022   0.0614  -0.0062  -0.1324   0.1974  -0.2030
 198 H_b :3d2+  -0.0005   0.0002  -0.0065  -0.1210   0.1546  -0.0099   0.0297
 199 H_c :1s    -0.5656   0.2323   0.0003   0.0003  -0.0005   0.0009   0.0003
 200 H_c :1s     0.0898  -0.0161  -0.0003  -0.0004   0.0006  -0.0010   0.0008
 201 H_c :1s     0.1716  -0.0203  -0.0183   0.0020  -0.0035  -0.0284   0.0608
 202 H_c :1s    -0.3935  -0.0202  -0.1301   0.0027  -0.0046  -0.0882   0.4570
 203 H_c :1s     0.0252  -0.0005   0.1115   0.0274  -0.0474  -0.0008  -0.4187
 204 H_c :1s    -0.0056   0.0006   0.4368   0.2788  -0.4830  -0.3896  -1.7831
 205 H_c :1s    -0.0040  -0.0000  -0.4452 -11.4704  19.8679   0.0600   0.4444
 212 H_c :2px    0.0121  -0.0048  -0.0041   0.0008  -0.0057  -0.0077   0.0168
 213 H_c :2py   -0.0187   0.0028   0.0023  -0.0047   0.0008   0.0045  -0.0097
 214 H_c :2pz    0.0132   0.0121  -0.0020   0.0022  -0.0039  -0.0152   0.0083
 215 H_c :2px   -0.0648   0.0166  -0.0080   0.0299  -0.0512   0.0109   0.0354
 216 H_c :2py    0.0193  -0.0096   0.0046  -0.0167   0.0299  -0.0063  -0.0205
 217 H_c :2pz    0.0068  -0.0051  -0.0106  -0.0009   0.0016  -0.1267   0.0399
 218 H_c :2px    0.0113  -0.0123  -0.3933   0.0388  -0.1722  -0.0226   1.4535
 219 H_c :2py   -0.0007   0.0071   0.2271  -0.1275   0.0388   0.0131  -0.8391
 220 H_c :2pz    0.0619  -0.0016  -0.0040  -0.3550   0.6149  -0.3014   0.0285
 221 H_c :2px    0.0016   0.0001  -0.0072  -0.0487  -0.4548  -0.6553   0.2639
 222 H_c :2py   -0.0003  -0.0000   0.0042  -0.5112  -0.0485   0.3783  -0.1524
 223 H_c :2pz   -0.0031  -0.0013  -0.0552  -0.0740   0.1281  -0.9413   0.2016
 240 H_c :3d1-  -0.0010   0.0003   0.0045  -0.0348  -0.0027   0.0107  -0.0171
 241 H_c :3d0    0.0048   0.0015  -0.0335  -0.0071   0.0123   0.0311   0.1218
 242 H_c :3d1+  -0.0097  -0.0006  -0.0078  -0.0027  -0.0316  -0.0186   0.0296
 244 H_c :3d2-  -0.0006  -0.0004   0.0114  -0.1546   0.0575   0.0172  -0.0515
 245 H_c :3d1-  -0.0007   0.0013   0.0355  -0.1252   0.0062   0.1140  -0.1172
 246 H_c :3d0    0.0048  -0.0018  -0.0620  -0.0550   0.0952  -0.1249   0.1978
 247 H_c :3d1+  -0.0030  -0.0022  -0.0614   0.0062  -0.1324  -0.1974   0.2030
 248 H_c :3d2+   0.0005   0.0002  -0.0066  -0.1210  -0.1546  -0.0099   0.0297

    Orbital        15       16       17       18       19
  19 P_a :2px    0.0000  -0.0035  -0.0003   0.0000   0.0373
  22 P_a :2px    0.0000  -0.1601  -0.0928   0.0000   0.0964
  23 P_a :2py    0.1601  -0.0000   0.0000  -0.0928  -0.0000
  25 P_a :2px    0.0000  -0.9206  -0.4169   0.0000   0.4086
  26 P_a :2py    0.9206   0.0000  -0.0000  -0.4170   0.0000
  28 P_a :2px    0.0000  -2.6561   0.5075  -0.0000  -2.0659
  29 P_a :2py    2.6561   0.0000   0.0000   0.5076  -0.0000
  31 P_a :2px    0.0000  -3.8399   0.0174  -0.0000  -0.9380
  32 P_a :2py    3.8399   0.0000  -0.0000   0.0174  -0.0000
  44 P_a :3d2-   0.0000   0.0042  -0.0178   0.0000   0.0029
  45 P_a :3d1-  -0.0132   0.0000  -0.0000   0.0044  -0.0000
  47 P_a :3d1+  -0.0000   0.0132   0.0044   0.0000  -0.0036
  48 P_a :3d2+  -0.0042   0.0000  -0.0000  -0.0178  -0.0000
  49 P_a :3d2-   0.0000  -0.0700   0.0140  -0.0000  -0.1106
  50 P_a :3d1-  -0.0127  -0.0000   0.0000   0.0178   0.0000
  52 P_a :3d1+   0.0000   0.0127   0.0178  -0.0000   0.0233
  53 P_a :3d2+   0.0700   0.0000   0.0000   0.0140  -0.0000
  54 P_a :3d2-  -0.0000   0.0385   1.6583  -0.0000   0.1924
  55 P_a :3d1-   0.4271   0.0000   0.0000   0.2108   0.0000
  57 P_a :3d1+  -0.0000  -0.4271   0.2109  -0.0000  -0.4215
  58 P_a :3d2+  -0.0384  -0.0000   0.0000   1.6583  -0.0000
  59 P_a :3d2-  -0.0000   0.0999  10.8292  -0.0002   0.7521
  60 P_a :3d1-   0.9518   0.0000   0.0000   1.4224  -0.0001
  62 P_a :3d1+   0.0000  -0.9517   1.4231  -0.0001  -7.0939
  63 P_a :3d2+  -0.0997  -0.0000   0.0002  10.8290  -0.0001
  79 P_a :4f2-  -0.0000   0.0003   0.0100  -0.0000   0.0016
  83 P_a :4f2+  -0.0003  -0.0000   0.0000   0.0100   0.0000
  86 P_a :4f2-   0.0000   0.0198  -0.0477   0.0000   0.0373
  87 P_a :4f1-  -0.0223   0.0000  -0.0000   0.0079  -0.0000
  89 P_a :4f1+  -0.0000   0.0223   0.0079   0.0000  -0.0005
  90 P_a :4f2+  -0.0198  -0.0000  -0.0000  -0.0477   0.0000
  93 P_a :4f2-   0.0000  -0.0493  -0.3655   0.0000  -0.1335
  94 P_a :4f1-  -0.0964  -0.0000  -0.0000  -0.1130   0.0000
  96 P_a :4f1+   0.0000   0.0964  -0.1130   0.0000   0.2112
  97 P_a :4f2+   0.0493   0.0000  -0.0000  -0.3655   0.0000
 101 H_a :1s    -0.0098  -0.0000   0.0000  -0.0158  -0.0000
 102 H_a :1s    -0.0186   0.0000   0.0000  -0.0623  -0.0000
 103 H_a :1s     0.0464  -0.0000   0.0000   0.1787   0.0000
 104 H_a :1s    -0.3821   0.0000  -0.0000  -0.7692   0.0000
 105 H_a :1s    21.8311   0.0001   0.0000   0.5573  -0.0000
 112 H_a :2px    0.0000   0.0107  -0.0098   0.0000  -0.0079
 113 H_a :2py   -0.0163  -0.0000   0.0000   0.0081   0.0000
 114 H_a :2pz   -0.0113  -0.0000   0.0000   0.0026  -0.0000
 115 H_a :2px   -0.0000  -0.0005   0.0356  -0.0000  -0.3023
 116 H_a :2py   -0.1835  -0.0000   0.0000   0.0485  -0.0000
 117 H_a :2pz    0.0151  -0.0000   0.0000  -0.0387  -0.0000
 118 H_a :2px   -0.0000   0.4090   3.9212  -0.0001  -0.1137
 119 H_a :2py   -0.3656   0.0000  -0.0001  -3.7840   0.0000
 120 H_a :2pz    1.9014   0.0000   0.0000   0.8484  -0.0000
 121 H_a :2px    0.0001   1.1877 -11.8096   0.0006  -0.6327
 122 H_a :2py   -1.5052  -0.0000   0.0003  11.6060  -0.0001
 123 H_a :2pz    0.9295   0.0000  -0.0000  -3.6976   0.0001
 139 H_a :3d2-   0.0000  -0.0052  -0.2496   0.0000  -0.1173
 140 H_a :3d1-  -0.0797  -0.0000   0.0000   0.0200  -0.0000
 141 H_a :3d0    0.0402   0.0000   0.0000  -0.0005   0.0000
 142 H_a :3d1+  -0.0000   0.0949  -0.0696   0.0000   0.0340
 143 H_a :3d2+   0.0368   0.0000  -0.0000  -0.2613   0.0000
 144 H_a :3d2-   0.0000   0.4604  -3.7861   0.0001  -0.0401
 145 H_a :3d1-  -0.2581   0.0000  -0.0001  -2.9209   0.0000
 146 H_a :3d0    0.2788   0.0000   0.0000   0.8613  -0.0000
 147 H_a :3d1+  -0.0000   0.3777   1.7263   0.0000   2.8694
 148 H_a :3d2+   0.5494   0.0000  -0.0001  -4.5288   0.0000
 151 H_b :1s     0.0049  -0.0085   0.0137   0.0079  -0.0166
 152 H_b :1s     0.0093  -0.0162   0.0538   0.0312   1.1250
 153 H_b :1s    -0.0232   0.0402  -0.1548  -0.0894   0.0865
 154 H_b :1s     0.1911  -0.3309   0.6662   0.3846   0.7624
 155 H_b :1s   -10.9156  18.9070  -0.4827  -0.2786   1.4041
 162 H_b :2px   -0.0024   0.0149   0.0036   0.0077  -0.0016
 163 H_b :2py   -0.0121   0.0024   0.0077  -0.0053   0.0036
 164 H_b :2pz    0.0056  -0.0097  -0.0023  -0.0013  -0.0143
 165 H_b :2px   -0.0797   0.1375   0.0453   0.0056  -0.2644
 166 H_b :2py   -0.0455   0.0797   0.0056   0.0388   0.0219
 167 H_b :2pz   -0.0076   0.0131   0.0335   0.0193  -0.0988
 168 H_b :2px    0.0187   0.3762  -1.8577  -3.3366  -0.5539
 169 H_b :2py   -0.3979  -0.0187  -3.3367   1.9950  -0.2538
 170 H_b :2pz   -0.9507   1.6467  -0.7352  -0.4241   2.2851
 171 H_b :2px   -0.1376   1.4256   5.7517  10.1394   1.5782
 172 H_b :2py   -1.2668   0.1379  10.1403  -5.9562   1.2768
 173 H_b :2pz   -0.4647   0.8050   3.2034   1.8485 -16.6102
 189 H_b :3d2-   0.0137  -0.0289  -0.2584  -0.0050  -0.0259
 190 H_b :3d1-  -0.0911  -0.0066   0.0388  -0.0472   0.0115
 191 H_b :3d0   -0.0201   0.0348   0.0004   0.0002  -0.1071
 192 H_b :3d1+   0.0066   0.0835  -0.0024   0.0388   0.0539
 193 H_b :3d2+   0.0131  -0.0137  -0.0050  -0.2526   0.0528
 194 H_b :3d2-   0.4373  -0.2970  -4.3435  -0.3213  -0.5010
 195 H_b :3d1-  -0.3478  -0.0518  -2.0125   0.5647   0.0554
 196 H_b :3d0   -0.1394   0.2414  -0.7464  -0.4306   2.9590
 197 H_b :3d1+   0.0518   0.2880  -1.7593  -2.0124   2.9657
 198 H_b :3d2+  -0.2079  -0.4372  -0.3218  -3.9720  -0.2661
 201 H_c :1s     0.0049   0.0085  -0.0137   0.0079   0.0166
 202 H_c :1s     0.0093   0.0162  -0.0538   0.0312  -1.1250
 203 H_c :1s    -0.0232  -0.0402   0.1548  -0.0894  -0.0865
 204 H_c :1s     0.1911   0.3309  -0.6661   0.3846  -0.7624
 205 H_c :1s   -10.9155 -18.9071   0.4827  -0.2787  -1.4041
 212 H_c :2px    0.0024   0.0149   0.0036  -0.0077  -0.0016
 213 H_c :2py   -0.0121  -0.0024  -0.0077  -0.0053  -0.0036
 214 H_c :2pz    0.0056   0.0097   0.0023  -0.0013   0.0143
 215 H_c :2px    0.0797   0.1375   0.0453  -0.0056  -0.2644
 216 H_c :2py   -0.0455  -0.0797  -0.0056   0.0388  -0.0219
 217 H_c :2pz   -0.0076  -0.0131  -0.0335   0.0193   0.0988
 218 H_c :2px   -0.0187   0.3762  -1.8576   3.3367  -0.5540
 219 H_c :2py   -0.3979   0.0186   3.3368   1.9949   0.2538
 220 H_c :2pz   -0.9507  -1.6467   0.7351  -0.4243  -2.2851
 221 H_c :2px    0.1375   1.4257   5.7513 -10.1400   1.5784
 222 H_c :2py   -1.2670  -0.1379 -10.1406  -5.9565  -1.2766
 223 H_c :2pz   -0.4647  -0.8050  -3.2033   1.8491  16.6101
 239 H_c :3d2-  -0.0137  -0.0289  -0.2584   0.0050  -0.0259
 240 H_c :3d1-  -0.0911   0.0066  -0.0388  -0.0472  -0.0115
 241 H_c :3d0   -0.0201  -0.0348  -0.0004   0.0002   0.1071
 242 H_c :3d1+  -0.0066   0.0835  -0.0024  -0.0388   0.0539
 243 H_c :3d2+   0.0131   0.0137   0.0050  -0.2526  -0.0528
 244 H_c :3d2-  -0.4372  -0.2970  -4.3435   0.3215  -0.5010
 245 H_c :3d1-  -0.3478   0.0518   2.0125   0.5646  -0.0554
 246 H_c :3d0   -0.1394  -0.2414   0.7464  -0.4307  -2.9590
 247 H_c :3d1+  -0.0518   0.2880  -1.7593   2.0125   2.9657
 248 H_c :3d2+  -0.2080   0.4373   0.3217  -3.9721   0.2661

  Total CPU  time used in SIRIUS :  18.47 seconds
  Total wall time used in SIRIUS :  18.60 seconds

 
     Date and time (Linux)  : Tue Jul 23 13:52:45 2024
     Host name              : dn012                                   

 NOTE:    1 warnings have been issued.
 Check output, result, and error files for "WARNING".


                     .---------------------------------------.
                     | End of Wave Function Section (SIRIUS) |
                     `---------------------------------------'



                 .------------------------------------------------.
                 | Starting in Dynamic Property Section (RESPONS) |
                 `------------------------------------------------'


 ----------------------------------------------------------------------------------------
  RESPONSE  -  an MCSCF, MC-srDFT, DFT, SOPPA and SOPPA-srDFT response property program
 ----------------------------------------------------------------------------------------


 -------- OUTPUT FROM RESPONSE INPUT PROCESSING --------




 Quadratic Response calculation
 ------------------------------

 First hyperpolarizability calculation : HYPCAL= T

 Spin of operator A , ISPINA=    0
 Spin of operator B , ISPINB=    0
 Spin of operator C , ISPINC=    0

  5 B-frequencies  0.000000D+00  1.647050D-02  3.294100D-02  4.941150D-02  6.588200D-02
  5 C-frequencies  0.000000D+00  1.647050D-02  3.294100D-02  4.941150D-02  6.588200D-02


 Print level                                    : IPRHYP =   2
 Maximum number of iterations in lin.rsp. solver: MAXITL =  60
 Threshold for convergence of linear resp. eq.s : THCLR  = 1.000D-03
 Maximum iterations in optimal orbital algorithm: MAXITO =   5
 Direct one-index transformation                : DIROIT = T

    3 A OPERATORS OF SYMMETRY NO:    1 AND LABELS:

          XDIPLEN 
          YDIPLEN 
          ZDIPLEN 

    3 B OPERATORS OF SYMMETRY NO:    1 AND LABELS:

          XDIPLEN 
          YDIPLEN 
          ZDIPLEN 

    3 C OPERATORS OF SYMMETRY NO:    1 AND LABELS:

          XDIPLEN 
          YDIPLEN 
          ZDIPLEN 


   SCF energy         :     -342.487695342811548
 -- inactive part     :     -360.013976049164739
 -- nuclear repulsion :       17.526280706353216


                     ***************************************
                     *** RHF response calculation (TDHF) ***
                     ***************************************



 Linear response calculations for quadratic response
 - singlet property operator of symmetry    1  ( A  )


 Perturbation symmetry.     KSYMOP:           1
 Perturbation spin symmetry.TRPLET:           F
 Orbital variables.         KZWOPT:        2106
 Configuration variables.   KZCONF:           0
 Total number of variables. KZVAR :        2106


 QRLRVE -- linear response calculation for symmetry  1  ( A  )
 QRLRVE -- operator label : XDIPLEN 
 QRLRVE -- operator spin  :   0
 QRLRVE -- frequencies :  0.000000  0.016470  0.032941  0.049411  0.065882
                          0.082352  0.098823  0.115293  0.131764



 ---  SOLVING SETS OF LINEAR EQUATIONS FOR LINEAR RESPONSE PROPERTIES ---

 Operator symmetry = 1  ( A  ); triplet =   F


 ** RSPCTL MICROITERATION NUMBER    1

       No.  Residual tot.,    conf., and orb.    Bnorm      Frequency 
      ----------------------------------------------------------------
         1    1.79301D+00  0.00D+00  1.79D+00  4.94D+00    0.00000D+00
         2    1.79562D+00  0.00D+00  1.80D+00  4.95D+00    1.64705D-02
         3    1.80351D+00  0.00D+00  1.80D+00  5.00D+00    3.29410D-02
         4    1.81688D+00  0.00D+00  1.82D+00  5.08D+00    4.94115D-02
         5    1.83608D+00  0.00D+00  1.84D+00  5.19D+00    6.58820D-02
         6    1.86164D+00  0.00D+00  1.86D+00  5.34D+00    8.23525D-02
         7    1.89432D+00  0.00D+00  1.89D+00  5.53D+00    9.88230D-02
         8    1.93520D+00  0.00D+00  1.94D+00  5.77D+00    1.15293D-01
         9    1.98576D+00  0.00D+00  1.99D+00  6.07D+00    1.31764D-01

 ** RSPCTL MICROITERATION NUMBER    2

       No.  Residual tot.,    conf., and orb.    Bnorm      Frequency 
      ----------------------------------------------------------------
         1    2.44912D-01  0.00D+00  2.45D-01  5.30D+00    0.00000D+00
         2    2.45585D-01  0.00D+00  2.46D-01  5.32D+00    1.64705D-02
         3    2.47630D-01  0.00D+00  2.48D-01  5.37D+00    3.29410D-02
         4    2.51123D-01  0.00D+00  2.51D-01  5.46D+00    4.94115D-02
         5    2.56201D-01  0.00D+00  2.56D-01  5.59D+00    6.58820D-02
         6    2.63077D-01  0.00D+00  2.63D-01  5.76D+00    8.23525D-02
         7    2.72074D-01  0.00D+00  2.72D-01  5.99D+00    9.88230D-02
         8    2.83668D-01  0.00D+00  2.84D-01  6.27D+00    1.15293D-01
         9    2.98583D-01  0.00D+00  2.99D-01  6.63D+00    1.31764D-01

 ** RSPCTL MICROITERATION NUMBER    3

       No.  Residual tot.,    conf., and orb.    Bnorm      Frequency 
      ----------------------------------------------------------------
         1    2.08639D-02  0.00D+00  2.09D-02  5.31D+00    0.00000D+00
         2    2.10159D-02  0.00D+00  2.10D-02  5.33D+00    1.64705D-02
         3    2.14810D-02  0.00D+00  2.15D-02  5.38D+00    3.29410D-02
         4    2.22879D-02  0.00D+00  2.23D-02  5.47D+00    4.94115D-02
         5    2.34889D-02  0.00D+00  2.35D-02  5.60D+00    6.58820D-02
         6    2.51683D-02  0.00D+00  2.52D-02  5.77D+00    8.23525D-02
         7    2.74571D-02  0.00D+00  2.75D-02  6.00D+00    9.88230D-02
         8    3.05594D-02  0.00D+00  3.06D-02  6.28D+00    1.15293D-01
         9    3.47992D-02  0.00D+00  3.48D-02  6.65D+00    1.31764D-01

 ** RSPCTL MICROITERATION NUMBER    4

       No.  Residual tot.,    conf., and orb.    Bnorm      Frequency 
      ----------------------------------------------------------------
         1    2.22423D-03  0.00D+00  2.22D-03  5.31D+00    0.00000D+00
         2    2.24562D-03  0.00D+00  2.25D-03  5.33D+00    1.64705D-02
         3    2.31190D-03  0.00D+00  2.31D-03  5.38D+00    3.29410D-02
         4    2.42980D-03  0.00D+00  2.43D-03  5.47D+00    4.94115D-02
         5    2.61186D-03  0.00D+00  2.61D-03  5.60D+00    6.58820D-02
         6    2.87887D-03  0.00D+00  2.88D-03  5.77D+00    8.23525D-02
         7    3.26414D-03  0.00D+00  3.26D-03  6.00D+00    9.88230D-02
         8    3.82128D-03  0.00D+00  3.82D-03  6.28D+00    1.15293D-01
         9    4.63851D-03  0.00D+00  4.64D-03  6.65D+00    1.31764D-01

 *** THE REQUESTED    9 SOLUTION VECTORS CONVERGED

 Convergence of RSP solution vectors, threshold = 1.00D-03
 ---------------------------------------------------------------
 (dimension of paired reduced space:   72)
 RSP solution vector no.    1; norm of residual   4.19D-04
 RSP solution vector no.    2; norm of residual   4.22D-04
 RSP solution vector no.    3; norm of residual   4.30D-04
 RSP solution vector no.    4; norm of residual   4.44D-04
 RSP solution vector no.    5; norm of residual   4.67D-04
 RSP solution vector no.    6; norm of residual   4.99D-04
 RSP solution vector no.    7; norm of residual   5.44D-04
 RSP solution vector no.    8; norm of residual   6.08D-04
 RSP solution vector no.    9; norm of residual   6.98D-04

 *** RSPCTL MICROITERATIONS CONVERGED

@ QRLRVE: SINGLET SOLUTION FOR SYMMETRY    1  ( A  )    LABEL   XDIPLEN     FREQUENCY   0.000000D+00

@ QRLRVE:  << XDIPLEN  ; XDIPLEN  >> (   0.00000):     29.5335094785    

@ QRLRVE:  << YDIPLEN  ; XDIPLEN  >> (   0.00000):    1.763215531927E-04

@ QRLRVE:  << ZDIPLEN  ; XDIPLEN  >> (   0.00000):   -2.741835537727E-04

@ QRLRVE: SINGLET SOLUTION FOR SYMMETRY    1  ( A  )    LABEL   XDIPLEN     FREQUENCY   0.164705D-01

@ QRLRVE:  << XDIPLEN  ; XDIPLEN  >> (   0.01647):     29.5803263408    

@ QRLRVE:  << YDIPLEN  ; XDIPLEN  >> (   0.01647):    1.830471941923E-04

@ QRLRVE:  << ZDIPLEN  ; XDIPLEN  >> (   0.01647):   -2.782660924027E-04

@ QRLRVE: SINGLET SOLUTION FOR SYMMETRY    1  ( A  )    LABEL   XDIPLEN     FREQUENCY   0.329410D-01

@ QRLRVE:  << XDIPLEN  ; XDIPLEN  >> (   0.03294):     29.7219996138    

@ QRLRVE:  << YDIPLEN  ; XDIPLEN  >> (   0.03294):    2.037909187095E-04

@ QRLRVE:  << ZDIPLEN  ; XDIPLEN  >> (   0.03294):   -2.905449053223E-04

@ QRLRVE: SINGLET SOLUTION FOR SYMMETRY    1  ( A  )    LABEL   XDIPLEN     FREQUENCY   0.494115D-01

@ QRLRVE:  << XDIPLEN  ; XDIPLEN  >> (   0.04941):     29.9622988995    

@ QRLRVE:  << YDIPLEN  ; XDIPLEN  >> (   0.04941):    2.403411148878E-04

@ QRLRVE:  << ZDIPLEN  ; XDIPLEN  >> (   0.04941):   -3.110964628309E-04

@ QRLRVE: SINGLET SOLUTION FOR SYMMETRY    1  ( A  )    LABEL   XDIPLEN     FREQUENCY   0.658820D-01

@ QRLRVE:  << XDIPLEN  ; XDIPLEN  >> (   0.06588):     30.3078639270    

@ QRLRVE:  << YDIPLEN  ; XDIPLEN  >> (   0.06588):    2.959936246841E-04

@ QRLRVE:  << ZDIPLEN  ; XDIPLEN  >> (   0.06588):   -3.399862438303E-04

@ QRLRVE: SINGLET SOLUTION FOR SYMMETRY    1  ( A  )    LABEL   XDIPLEN     FREQUENCY   0.823525D-01

@ QRLRVE:  << XDIPLEN  ; XDIPLEN  >> (   0.08235):     30.7688112975    

@ QRLRVE:  << YDIPLEN  ; XDIPLEN  >> (   0.08235):    3.761094304016E-04

@ QRLRVE:  << ZDIPLEN  ; XDIPLEN  >> (   0.08235):   -3.771576097230E-04

@ QRLRVE: SINGLET SOLUTION FOR SYMMETRY    1  ( A  )    LABEL   XDIPLEN     FREQUENCY   0.988230D-01

@ QRLRVE:  << XDIPLEN  ; XDIPLEN  >> (   0.09882):     31.3597515002    

@ QRLRVE:  << YDIPLEN  ; XDIPLEN  >> (   0.09882):    4.890991193955E-04

@ QRLRVE:  << ZDIPLEN  ; XDIPLEN  >> (   0.09882):   -4.222364616476E-04

@ QRLRVE: SINGLET SOLUTION FOR SYMMETRY    1  ( A  )    LABEL   XDIPLEN     FREQUENCY   0.115293D+00

@ QRLRVE:  << XDIPLEN  ; XDIPLEN  >> (   0.11529):     32.1014570654    

@ QRLRVE:  << YDIPLEN  ; XDIPLEN  >> (   0.11529):    6.481367125754E-04

@ QRLRVE:  << ZDIPLEN  ; XDIPLEN  >> (   0.11529):   -4.742055297152E-04

@ QRLRVE: SINGLET SOLUTION FOR SYMMETRY    1  ( A  )    LABEL   XDIPLEN     FREQUENCY   0.131764D+00

@ QRLRVE:  << XDIPLEN  ; XDIPLEN  >> (   0.13176):     33.0236454141    

@ QRLRVE:  << YDIPLEN  ; XDIPLEN  >> (   0.13176):    8.742005114411E-04

@ QRLRVE:  << ZDIPLEN  ; XDIPLEN  >> (   0.13176):   -5.308887675670E-04


 QRLRVE -- linear response calculation for symmetry  1  ( A  )
 QRLRVE -- operator label : YDIPLEN 
 QRLRVE -- operator spin  :   0
 QRLRVE -- frequencies :  0.000000  0.016470  0.032941  0.049411  0.065882
                          0.082352  0.098823  0.115293  0.131764



 ---  SOLVING SETS OF LINEAR EQUATIONS FOR LINEAR RESPONSE PROPERTIES ---

 Operator symmetry = 1  ( A  ); triplet =   F


 ** RSPCTL MICROITERATION NUMBER    1

       No.  Residual tot.,    conf., and orb.    Bnorm      Frequency 
      ----------------------------------------------------------------
         1    1.79244D+00  0.00D+00  1.79D+00  4.93D+00    0.00000D+00
         2    1.79505D+00  0.00D+00  1.80D+00  4.95D+00    1.64705D-02
         3    1.80294D+00  0.00D+00  1.80D+00  5.00D+00    3.29410D-02
         4    1.81631D+00  0.00D+00  1.82D+00  5.07D+00    4.94115D-02
         5    1.83551D+00  0.00D+00  1.84D+00  5.19D+00    6.58820D-02
         6    1.86107D+00  0.00D+00  1.86D+00  5.34D+00    8.23525D-02
         7    1.89375D+00  0.00D+00  1.89D+00  5.53D+00    9.88230D-02
         8    1.93462D+00  0.00D+00  1.93D+00  5.77D+00    1.15293D-01
         9    1.98517D+00  0.00D+00  1.99D+00  6.07D+00    1.31764D-01

 ** RSPCTL MICROITERATION NUMBER    2

       No.  Residual tot.,    conf., and orb.    Bnorm      Frequency 
      ----------------------------------------------------------------
         1    2.45775D-01  0.00D+00  2.46D-01  5.30D+00    0.00000D+00
         2    2.46467D-01  0.00D+00  2.46D-01  5.32D+00    1.64705D-02
         3    2.48568D-01  0.00D+00  2.49D-01  5.37D+00    3.29410D-02
         4    2.52156D-01  0.00D+00  2.52D-01  5.46D+00    4.94115D-02
         5    2.57368D-01  0.00D+00  2.57D-01  5.59D+00    6.58820D-02
         6    2.64420D-01  0.00D+00  2.64D-01  5.76D+00    8.23525D-02
         7    2.73634D-01  0.00D+00  2.74D-01  5.99D+00    9.88230D-02
         8    2.85490D-01  0.00D+00  2.85D-01  6.27D+00    1.15293D-01
         9    3.00709D-01  0.00D+00  3.01D-01  6.63D+00    1.31764D-01

 ** RSPCTL MICROITERATION NUMBER    3

       No.  Residual tot.,    conf., and orb.    Bnorm      Frequency 
      ----------------------------------------------------------------
         1    2.09119D-02  0.00D+00  2.09D-02  5.31D+00    0.00000D+00
         2    2.10648D-02  0.00D+00  2.11D-02  5.33D+00    1.64705D-02
         3    2.15330D-02  0.00D+00  2.15D-02  5.38D+00    3.29410D-02
         4    2.23453D-02  0.00D+00  2.23D-02  5.47D+00    4.94115D-02
         5    2.35549D-02  0.00D+00  2.36D-02  5.60D+00    6.58820D-02
         6    2.52473D-02  0.00D+00  2.52D-02  5.77D+00    8.23525D-02
         7    2.75550D-02  0.00D+00  2.76D-02  6.00D+00    9.88230D-02
         8    3.06845D-02  0.00D+00  3.07D-02  6.28D+00    1.15293D-01
         9    3.49633D-02  0.00D+00  3.50D-02  6.65D+00    1.31764D-01

 ** RSPCTL MICROITERATION NUMBER    4

       No.  Residual tot.,    conf., and orb.    Bnorm      Frequency 
      ----------------------------------------------------------------
         1    2.27867D-03  0.00D+00  2.28D-03  5.31D+00    0.00000D+00
         2    2.29452D-03  0.00D+00  2.29D-03  5.33D+00    1.64705D-02
         3    2.34403D-03  0.00D+00  2.34D-03  5.38D+00    3.29410D-02
         4    2.43344D-03  0.00D+00  2.43D-03  5.47D+00    4.94115D-02
         5    2.57477D-03  0.00D+00  2.57D-03  5.60D+00    6.58820D-02
         6    2.78857D-03  0.00D+00  2.79D-03  5.77D+00    8.23525D-02
         7    3.10890D-03  0.00D+00  3.11D-03  6.00D+00    9.88230D-02
         8    3.59180D-03  0.00D+00  3.59D-03  6.28D+00    1.15293D-01
         9    4.33044D-03  0.00D+00  4.33D-03  6.65D+00    1.31764D-01

 *** THE REQUESTED    9 SOLUTION VECTORS CONVERGED

 Convergence of RSP solution vectors, threshold = 1.00D-03
 ---------------------------------------------------------------
 (dimension of paired reduced space:   72)
 RSP solution vector no.    1; norm of residual   4.29D-04
 RSP solution vector no.    2; norm of residual   4.31D-04
 RSP solution vector no.    3; norm of residual   4.36D-04
 RSP solution vector no.    4; norm of residual   4.45D-04
 RSP solution vector no.    5; norm of residual   4.60D-04
 RSP solution vector no.    6; norm of residual   4.83D-04
 RSP solution vector no.    7; norm of residual   5.18D-04
 RSP solution vector no.    8; norm of residual   5.72D-04
 RSP solution vector no.    9; norm of residual   6.52D-04

 *** RSPCTL MICROITERATIONS CONVERGED

@ QRLRVE: SINGLET SOLUTION FOR SYMMETRY    1  ( A  )    LABEL   YDIPLEN     FREQUENCY   0.000000D+00

@ QRLRVE:  << XDIPLEN  ; YDIPLEN  >> (   0.00000):   -4.781977478366E-04

@ QRLRVE:  << YDIPLEN  ; YDIPLEN  >> (   0.00000):     29.5341878302    

@ QRLRVE:  << ZDIPLEN  ; YDIPLEN  >> (   0.00000):   -3.150010353755E-04

@ QRLRVE: SINGLET SOLUTION FOR SYMMETRY    1  ( A  )    LABEL   YDIPLEN     FREQUENCY   0.164705D-01

@ QRLRVE:  << XDIPLEN  ; YDIPLEN  >> (   0.01647):   -4.735042795868E-04

@ QRLRVE:  << YDIPLEN  ; YDIPLEN  >> (   0.01647):     29.5810066446    

@ QRLRVE:  << ZDIPLEN  ; YDIPLEN  >> (   0.01647):   -3.116950012317E-04

@ QRLRVE: SINGLET SOLUTION FOR SYMMETRY    1  ( A  )    LABEL   YDIPLEN     FREQUENCY   0.329410D-01

@ QRLRVE:  << XDIPLEN  ; YDIPLEN  >> (   0.03294):   -4.589324508535E-04

@ QRLRVE:  << YDIPLEN  ; YDIPLEN  >> (   0.03294):     29.7226858369    

@ QRLRVE:  << ZDIPLEN  ; YDIPLEN  >> (   0.03294):   -3.013652945707E-04

@ QRLRVE: SINGLET SOLUTION FOR SYMMETRY    1  ( A  )    LABEL   YDIPLEN     FREQUENCY   0.494115D-01

@ QRLRVE:  << XDIPLEN  ; YDIPLEN  >> (   0.04941):   -4.329300271127E-04

@ QRLRVE:  << YDIPLEN  ; YDIPLEN  >> (   0.04941):     29.9629952028    

@ QRLRVE:  << ZDIPLEN  ; YDIPLEN  >> (   0.04941):   -2.827067768800E-04

@ QRLRVE: SINGLET SOLUTION FOR SYMMETRY    1  ( A  )    LABEL   YDIPLEN     FREQUENCY   0.658820D-01

@ QRLRVE:  << XDIPLEN  ; YDIPLEN  >> (   0.06588):   -3.926301526648E-04

@ QRLRVE:  << YDIPLEN  ; YDIPLEN  >> (   0.06588):     30.3085748123    

@ QRLRVE:  << ZDIPLEN  ; YDIPLEN  >> (   0.06588):   -2.532913145515E-04

@ QRLRVE: SINGLET SOLUTION FOR SYMMETRY    1  ( A  )    LABEL   YDIPLEN     FREQUENCY   0.823525D-01

@ QRLRVE:  << XDIPLEN  ; YDIPLEN  >> (   0.08235):   -3.333541028853E-04

@ QRLRVE:  << YDIPLEN  ; YDIPLEN  >> (   0.08235):     30.7695417854    

@ QRLRVE:  << ZDIPLEN  ; YDIPLEN  >> (   0.08235):   -2.091164409105E-04

@ QRLRVE: SINGLET SOLUTION FOR SYMMETRY    1  ( A  )    LABEL   YDIPLEN     FREQUENCY   0.988230D-01

@ QRLRVE:  << XDIPLEN  ; YDIPLEN  >> (   0.09882):   -2.477273648789E-04

@ QRLRVE:  << YDIPLEN  ; YDIPLEN  >> (   0.09882):     31.3605073572    

@ QRLRVE:  << ZDIPLEN  ; YDIPLEN  >> (   0.09882):   -1.437990683730E-04

@ QRLRVE: SINGLET SOLUTION FOR SYMMETRY    1  ( A  )    LABEL   YDIPLEN     FREQUENCY   0.115293D+00

@ QRLRVE:  << XDIPLEN  ; YDIPLEN  >> (   0.11529):   -1.241247443710E-04

@ QRLRVE:  << YDIPLEN  ; YDIPLEN  >> (   0.11529):     32.1022451073    

@ QRLRVE:  << ZDIPLEN  ; YDIPLEN  >> (   0.11529):   -4.714997992078E-05

@ QRLRVE: SINGLET SOLUTION FOR SYMMETRY    1  ( A  )    LABEL   YDIPLEN     FREQUENCY   0.131764D+00

@ QRLRVE:  << XDIPLEN  ; YDIPLEN  >> (   0.13176):    5.612925464866E-05

@ QRLRVE:  << YDIPLEN  ; YDIPLEN  >> (   0.13176):     33.0244739277    

@ QRLRVE:  << ZDIPLEN  ; YDIPLEN  >> (   0.13176):    9.740410488523E-05


 QRLRVE -- linear response calculation for symmetry  1  ( A  )
 QRLRVE -- operator label : ZDIPLEN 
 QRLRVE -- operator spin  :   0
 QRLRVE -- frequencies :  0.000000  0.016470  0.032941  0.049411  0.065882
                          0.082352  0.098823  0.115293  0.131764



 ---  SOLVING SETS OF LINEAR EQUATIONS FOR LINEAR RESPONSE PROPERTIES ---

 Operator symmetry = 1  ( A  ); triplet =   F


 ** RSPCTL MICROITERATION NUMBER    1

       No.  Residual tot.,    conf., and orb.    Bnorm      Frequency 
      ----------------------------------------------------------------
         1    1.65688D+00  0.00D+00  1.66D+00  5.32D+00    0.00000D+00
         2    1.65906D+00  0.00D+00  1.66D+00  5.34D+00    1.64705D-02
         3    1.66565D+00  0.00D+00  1.67D+00  5.40D+00    3.29410D-02
         4    1.67684D+00  0.00D+00  1.68D+00  5.49D+00    4.94115D-02
         5    1.69291D+00  0.00D+00  1.69D+00  5.63D+00    6.58820D-02
         6    1.71433D+00  0.00D+00  1.71D+00  5.82D+00    8.23525D-02
         7    1.74176D+00  0.00D+00  1.74D+00  6.06D+00    9.88230D-02
         8    1.77616D+00  0.00D+00  1.78D+00  6.37D+00    1.15293D-01
         9    1.81893D+00  0.00D+00  1.82D+00  6.77D+00    1.31764D-01

 ** RSPCTL MICROITERATION NUMBER    2

       No.  Residual tot.,    conf., and orb.    Bnorm      Frequency 
      ----------------------------------------------------------------
         1    3.31688D-01  0.00D+00  3.32D-01  5.68D+00    0.00000D+00
         2    3.32397D-01  0.00D+00  3.32D-01  5.70D+00    1.64705D-02
         3    3.34548D-01  0.00D+00  3.35D-01  5.77D+00    3.29410D-02
         4    3.38220D-01  0.00D+00  3.38D-01  5.88D+00    4.94115D-02
         5    3.43557D-01  0.00D+00  3.44D-01  6.04D+00    6.58820D-02
         6    3.50783D-01  0.00D+00  3.51D-01  6.26D+00    8.23525D-02
         7    3.60242D-01  0.00D+00  3.60D-01  6.54D+00    9.88230D-02
         8    3.72454D-01  0.00D+00  3.72D-01  6.91D+00    1.15293D-01
         9    3.88232D-01  0.00D+00  3.88D-01  7.40D+00    1.31764D-01

 ** RSPCTL MICROITERATION NUMBER    3

       No.  Residual tot.,    conf., and orb.    Bnorm      Frequency 
      ----------------------------------------------------------------
         1    4.05121D-02  0.00D+00  4.05D-02  5.69D+00    0.00000D+00
         2    4.05961D-02  0.00D+00  4.06D-02  5.71D+00    1.64705D-02
         3    4.08524D-02  0.00D+00  4.09D-02  5.77D+00    3.29410D-02
         4    4.12951D-02  0.00D+00  4.13D-02  5.89D+00    4.94115D-02
         5    4.19498D-02  0.00D+00  4.19D-02  6.05D+00    6.58820D-02
         6    4.28593D-02  0.00D+00  4.29D-02  6.27D+00    8.23525D-02
         7    4.40923D-02  0.00D+00  4.41D-02  6.56D+00    9.88230D-02
         8    4.57600D-02  0.00D+00  4.58D-02  6.93D+00    1.15293D-01
         9    4.80484D-02  0.00D+00  4.80D-02  7.42D+00    1.31764D-01

 ** RSPCTL MICROITERATION NUMBER    4

       No.  Residual tot.,    conf., and orb.    Bnorm      Frequency 
      ----------------------------------------------------------------
         1    2.99842D-03  0.00D+00  3.00D-03  5.69D+00    0.00000D+00
         2    3.01408D-03  0.00D+00  3.01D-03  5.71D+00    1.64705D-02
         3    3.06229D-03  0.00D+00  3.06D-03  5.77D+00    3.29410D-02
         4    3.14703D-03  0.00D+00  3.15D-03  5.89D+00    4.94115D-02
         5    3.27568D-03  0.00D+00  3.28D-03  6.05D+00    6.58820D-02
         6    3.46034D-03  0.00D+00  3.46D-03  6.27D+00    8.23525D-02
         7    3.72026D-03  0.00D+00  3.72D-03  6.56D+00    9.88230D-02
         8    4.08599D-03  0.00D+00  4.09D-03  6.93D+00    1.15293D-01
         9    4.60715D-03  0.00D+00  4.61D-03  7.42D+00    1.31764D-01

 *** THE REQUESTED    9 SOLUTION VECTORS CONVERGED

 Convergence of RSP solution vectors, threshold = 1.00D-03
 ---------------------------------------------------------------
 (dimension of paired reduced space:   72)
 RSP solution vector no.    1; norm of residual   5.27D-04
 RSP solution vector no.    2; norm of residual   5.28D-04
 RSP solution vector no.    3; norm of residual   5.30D-04
 RSP solution vector no.    4; norm of residual   5.35D-04
 RSP solution vector no.    5; norm of residual   5.42D-04
 RSP solution vector no.    6; norm of residual   5.52D-04
 RSP solution vector no.    7; norm of residual   5.67D-04
 RSP solution vector no.    8; norm of residual   5.90D-04
 RSP solution vector no.    9; norm of residual   6.21D-04

 *** RSPCTL MICROITERATIONS CONVERGED

@ QRLRVE: SINGLET SOLUTION FOR SYMMETRY    1  ( A  )    LABEL   ZDIPLEN     FREQUENCY   0.000000D+00

@ QRLRVE:  << XDIPLEN  ; ZDIPLEN  >> (   0.00000):   -5.147053106296E-04

@ QRLRVE:  << YDIPLEN  ; ZDIPLEN  >> (   0.00000):    1.295082648888E-04

@ QRLRVE:  << ZDIPLEN  ; ZDIPLEN  >> (   0.00000):     30.5015635819    

@ QRLRVE: SINGLET SOLUTION FOR SYMMETRY    1  ( A  )    LABEL   ZDIPLEN     FREQUENCY   0.164705D-01

@ QRLRVE:  << XDIPLEN  ; ZDIPLEN  >> (   0.01647):   -5.130124381873E-04

@ QRLRVE:  << YDIPLEN  ; ZDIPLEN  >> (   0.01647):    1.300944250209E-04

@ QRLRVE:  << ZDIPLEN  ; ZDIPLEN  >> (   0.01647):     30.5572133662    

@ QRLRVE: SINGLET SOLUTION FOR SYMMETRY    1  ( A  )    LABEL   ZDIPLEN     FREQUENCY   0.329410D-01

@ QRLRVE:  << XDIPLEN  ; ZDIPLEN  >> (   0.03294):   -5.074438881105E-04

@ QRLRVE:  << YDIPLEN  ; ZDIPLEN  >> (   0.03294):    1.319340724811E-04

@ QRLRVE:  << ZDIPLEN  ; ZDIPLEN  >> (   0.03294):     30.7259211928    

@ QRLRVE: SINGLET SOLUTION FOR SYMMETRY    1  ( A  )    LABEL   ZDIPLEN     FREQUENCY   0.494115D-01

@ QRLRVE:  << XDIPLEN  ; ZDIPLEN  >> (   0.04941):   -4.964060187398E-04

@ QRLRVE:  << YDIPLEN  ; ZDIPLEN  >> (   0.04941):    1.352975242519E-04

@ QRLRVE:  << ZDIPLEN  ; ZDIPLEN  >> (   0.04941):     31.0131370077    

@ QRLRVE: SINGLET SOLUTION FOR SYMMETRY    1  ( A  )    LABEL   ZDIPLEN     FREQUENCY   0.658820D-01

@ QRLRVE:  << XDIPLEN  ; ZDIPLEN  >> (   0.06588):   -4.767859238180E-04

@ QRLRVE:  << YDIPLEN  ; ZDIPLEN  >> (   0.06588):    1.407360077371E-04

@ QRLRVE:  << ZDIPLEN  ; ZDIPLEN  >> (   0.06588):     31.4285627316    

@ QRLRVE: SINGLET SOLUTION FOR SYMMETRY    1  ( A  )    LABEL   ZDIPLEN     FREQUENCY   0.823525D-01

@ QRLRVE:  << XDIPLEN  ; ZDIPLEN  >> (   0.08235):   -4.430899554045E-04

@ QRLRVE:  << YDIPLEN  ; ZDIPLEN  >> (   0.08235):    1.492784953172E-04

@ QRLRVE:  << ZDIPLEN  ; ZDIPLEN  >> (   0.08235):     31.9872232466    

@ QRLRVE: SINGLET SOLUTION FOR SYMMETRY    1  ( A  )    LABEL   ZDIPLEN     FREQUENCY   0.988230D-01

@ QRLRVE:  << XDIPLEN  ; ZDIPLEN  >> (   0.09882):   -3.857900485984E-04

@ QRLRVE:  << YDIPLEN  ; ZDIPLEN  >> (   0.09882):    1.628256415943E-04

@ QRLRVE:  << ZDIPLEN  ; ZDIPLEN  >> (   0.09882):     32.7113091151    

@ QRLRVE: SINGLET SOLUTION FOR SYMMETRY    1  ( A  )    LABEL   ZDIPLEN     FREQUENCY   0.115293D+00

@ QRLRVE:  << XDIPLEN  ; ZDIPLEN  >> (   0.11529):   -2.881365084345E-04

@ QRLRVE:  << YDIPLEN  ; ZDIPLEN  >> (   0.11529):    1.849426884428E-04

@ QRLRVE:  << ZDIPLEN  ; ZDIPLEN  >> (   0.11529):     33.6333047470    

@ QRLRVE: SINGLET SOLUTION FOR SYMMETRY    1  ( A  )    LABEL   ZDIPLEN     FREQUENCY   0.131764D+00

@ QRLRVE:  << XDIPLEN  ; ZDIPLEN  >> (   0.13176):   -1.198051808356E-04

@ QRLRVE:  << YDIPLEN  ; ZDIPLEN  >> (   0.13176):    2.225064155309E-04

@ QRLRVE:  << ZDIPLEN  ; ZDIPLEN  >> (   0.13176):     34.8014342553    
 
 ======================================================================
 ---  L I N E A R   R E S P O N S E   F U N C T I O N S --- 
 ======================================================================

 The -<<A;B>>(omega_b) functions from vectors generated
 in a *QUADRA calculation of <<A;B,C>>(omega_b,omega_c)

 Note: the accuracy of off-diagonal elements will be linear
 in the convergence threshold THCLR =  1.00D-03


 Perturbation symmetry.     KSYMOP:           1
 Perturbation spin symmetry.TRPLET:           F
 Orbital variables.         KZWOPT:        2106
 Configuration variables.   KZCONF:           0
 Total number of variables. KZVAR :        2106

@ Singlet linear response function in a.u.

@ A operator, symmetry, frequency:   XDIPLEN    1  0.000000
@ B operator, symmetry, frequency:   XDIPLEN    1  0.000000

@ Value of linear response -<<A;B>>(omega):      29.533509478531

@ Singlet linear response function in a.u.

@ A operator, symmetry, frequency:   YDIPLEN    1  0.000000
@ B operator, symmetry, frequency:   XDIPLEN    1  0.000000

@ Value of linear response -<<A;B>>(omega):       0.000176321553

@ Singlet linear response function in a.u.

[...]
@ B-freq = 0.049411  C-freq = 0.049411     beta(Y;Z,Y) =     -5.25415483
@ B-freq = 0.049411  C-freq = 0.049411     beta(Z;Z,Y) =      0.00450622
@ B-freq = 0.065882  C-freq = 0.049411     beta(X;Z,Y) =     -0.00030214
@ B-freq = 0.065882  C-freq = 0.049411     beta(Y;Z,Y) =     -5.94699540
@ B-freq = 0.065882  C-freq = 0.049411     beta(Z;Z,Y) =      0.00541403
@ B-freq = 0.000000  C-freq = 0.065882     beta(X;X,Y) = beta(X,Y,X)
@ B-freq = 0.000000  C-freq = 0.065882     beta(Y;X,Y) = beta(Y,Y,X)
@ B-freq = 0.000000  C-freq = 0.065882     beta(Z;X,Y) = beta(Z,Y,X)
@ B-freq = 0.016470  C-freq = 0.065882     beta(X;X,Y) = beta(X,Y,X)
@ B-freq = 0.016470  C-freq = 0.065882     beta(Y;X,Y) = beta(Y,Y,X)
@ B-freq = 0.016470  C-freq = 0.065882     beta(Z;X,Y) = beta(Z,Y,X)
@ B-freq = 0.032941  C-freq = 0.065882     beta(X;X,Y) = beta(X,Y,X)
@ B-freq = 0.032941  C-freq = 0.065882     beta(Y;X,Y) = beta(Y,Y,X)
@ B-freq = 0.032941  C-freq = 0.065882     beta(Z;X,Y) = beta(Z,Y,X)
@ B-freq = 0.049411  C-freq = 0.065882     beta(X;X,Y) = beta(X,Y,X)
@ B-freq = 0.049411  C-freq = 0.065882     beta(Y;X,Y) = beta(Y,Y,X)
@ B-freq = 0.049411  C-freq = 0.065882     beta(Z;X,Y) = beta(Z,Y,X)
@ B-freq = 0.065882  C-freq = 0.065882     beta(X;X,Y) = beta(X,Y,X)
@ B-freq = 0.065882  C-freq = 0.065882     beta(Y;X,Y) = beta(Y,Y,X)
@ B-freq = 0.065882  C-freq = 0.065882     beta(Z;X,Y) = beta(Z,Y,X)
@ B-freq = 0.000000  C-freq = 0.065882     beta(X;Y,Y) = beta(X,Y,Y)
@ B-freq = 0.000000  C-freq = 0.065882     beta(Y;Y,Y) = beta(Y,Y,Y)
@ B-freq = 0.000000  C-freq = 0.065882     beta(Z;Y,Y) = beta(Z,Y,Y)
@ B-freq = 0.016470  C-freq = 0.065882     beta(X;Y,Y) = beta(X,Y,Y)
@ B-freq = 0.016470  C-freq = 0.065882     beta(Y;Y,Y) = beta(Y,Y,Y)
@ B-freq = 0.016470  C-freq = 0.065882     beta(Z;Y,Y) = beta(Z,Y,Y)
@ B-freq = 0.032941  C-freq = 0.065882     beta(X;Y,Y) = beta(X,Y,Y)
@ B-freq = 0.032941  C-freq = 0.065882     beta(Y;Y,Y) = beta(Y,Y,Y)
@ B-freq = 0.032941  C-freq = 0.065882     beta(Z;Y,Y) = beta(Z,Y,Y)
@ B-freq = 0.049411  C-freq = 0.065882     beta(X;Y,Y) = beta(X,Y,Y)
@ B-freq = 0.049411  C-freq = 0.065882     beta(Y;Y,Y) = beta(Y,Y,Y)
@ B-freq = 0.049411  C-freq = 0.065882     beta(Z;Y,Y) = beta(Z,Y,Y)
@ B-freq = 0.065882  C-freq = 0.065882     beta(X;Y,Y) =      0.00108395
@ B-freq = 0.065882  C-freq = 0.065882     beta(Y;Y,Y) =     17.49987369
@ B-freq = 0.065882  C-freq = 0.065882     beta(Z;Y,Y) =     -7.86869480
@ B-freq = 0.000000  C-freq = 0.065882     beta(X;Z,Y) =     -0.00010341
@ B-freq = 0.000000  C-freq = 0.065882     beta(Y;Z,Y) =     -4.58815813
@ B-freq = 0.000000  C-freq = 0.065882     beta(Z;Z,Y) =      0.00383429
@ B-freq = 0.016470  C-freq = 0.065882     beta(X;Z,Y) =     -0.00012132
@ B-freq = 0.016470  C-freq = 0.065882     beta(Y;Z,Y) =     -4.79659714
@ B-freq = 0.016470  C-freq = 0.065882     beta(Z;Z,Y) =      0.00417229
@ B-freq = 0.032941  C-freq = 0.065882     beta(X;Z,Y) =     -0.00017903
@ B-freq = 0.032941  C-freq = 0.065882     beta(Y;Z,Y) =     -5.16304624
@ B-freq = 0.032941  C-freq = 0.065882     beta(Z;Z,Y) =      0.00470400
@ B-freq = 0.049411  C-freq = 0.065882     beta(X;Z,Y) =     -0.00030616
@ B-freq = 0.049411  C-freq = 0.065882     beta(Y;Z,Y) =     -5.74065484
@ B-freq = 0.049411  C-freq = 0.065882     beta(Z;Z,Y) =      0.00550915
@ B-freq = 0.065882  C-freq = 0.065882     beta(X;Z,Y) =     -0.00055565
@ B-freq = 0.065882  C-freq = 0.065882     beta(Y;Z,Y) =     -6.62106963
@ B-freq = 0.065882  C-freq = 0.065882     beta(Z;Z,Y) =      0.00673358
@ B-freq = 0.000000  C-freq = 0.000000     beta(X;X,Z) = beta(Z,X,X)
@ B-freq = 0.000000  C-freq = 0.000000     beta(Y;X,Z) = beta(Z,Y,X)
@ B-freq = 0.000000  C-freq = 0.000000     beta(Z;X,Z) = beta(Z,Z,X)
@ B-freq = 0.016470  C-freq = 0.000000     beta(X;X,Z) = beta(X,Z,X)
@ B-freq = 0.016470  C-freq = 0.000000     beta(Y;X,Z) = beta(Y,Z,X)
@ B-freq = 0.016470  C-freq = 0.000000     beta(Z;X,Z) = beta(Z,Z,X)
@ B-freq = 0.032941  C-freq = 0.000000     beta(X;X,Z) = beta(X,Z,X)
@ B-freq = 0.032941  C-freq = 0.000000     beta(Y;X,Z) = beta(Y,Z,X)
@ B-freq = 0.032941  C-freq = 0.000000     beta(Z;X,Z) = beta(Z,Z,X)
@ B-freq = 0.049411  C-freq = 0.000000     beta(X;X,Z) = beta(X,Z,X)
@ B-freq = 0.049411  C-freq = 0.000000     beta(Y;X,Z) = beta(Y,Z,X)
@ B-freq = 0.049411  C-freq = 0.000000     beta(Z;X,Z) = beta(Z,Z,X)
@ B-freq = 0.065882  C-freq = 0.000000     beta(X;X,Z) = beta(X,Z,X)
@ B-freq = 0.065882  C-freq = 0.000000     beta(Y;X,Z) = beta(Y,Z,X)
@ B-freq = 0.065882  C-freq = 0.000000     beta(Z;X,Z) = beta(Z,Z,X)
@ B-freq = 0.000000  C-freq = 0.000000     beta(X;Y,Z) = beta(Z,Y,X)
@ B-freq = 0.000000  C-freq = 0.000000     beta(Y;Y,Z) = beta(Z,Y,Y)
@ B-freq = 0.000000  C-freq = 0.000000     beta(Z;Y,Z) = beta(Z,Z,Y)
@ B-freq = 0.016470  C-freq = 0.000000     beta(X;Y,Z) = beta(X,Z,Y)
@ B-freq = 0.016470  C-freq = 0.000000     beta(Y;Y,Z) = beta(Y,Z,Y)
@ B-freq = 0.016470  C-freq = 0.000000     beta(Z;Y,Z) = beta(Z,Z,Y)
@ B-freq = 0.032941  C-freq = 0.000000     beta(X;Y,Z) = beta(X,Z,Y)
@ B-freq = 0.032941  C-freq = 0.000000     beta(Y;Y,Z) = beta(Y,Z,Y)
@ B-freq = 0.032941  C-freq = 0.000000     beta(Z;Y,Z) = beta(Z,Z,Y)
@ B-freq = 0.049411  C-freq = 0.000000     beta(X;Y,Z) = beta(X,Z,Y)
@ B-freq = 0.049411  C-freq = 0.000000     beta(Y;Y,Z) = beta(Y,Z,Y)
@ B-freq = 0.049411  C-freq = 0.000000     beta(Z;Y,Z) = beta(Z,Z,Y)
@ B-freq = 0.065882  C-freq = 0.000000     beta(X;Y,Z) = beta(X,Z,Y)
@ B-freq = 0.065882  C-freq = 0.000000     beta(Y;Y,Z) = beta(Y,Z,Y)
@ B-freq = 0.065882  C-freq = 0.000000     beta(Z;Y,Z) = beta(Z,Z,Y)
@ B-freq = 0.000000  C-freq = 0.000000     beta(X;Z,Z) = beta(Z,Z,X)
@ B-freq = 0.000000  C-freq = 0.000000     beta(Y;Z,Z) = beta(Z,Z,Y)
@ B-freq = 0.000000  C-freq = 0.000000     beta(X;Z,Z) =      0.00572796
@ B-freq = 0.000000  C-freq = 0.000000     beta(Y;Z,Z) =      0.00259432
@ B-freq = 0.000000  C-freq = 0.000000     beta(Z;Z,Z) =    -29.87908942
@ B-freq = 0.016470  C-freq = 0.000000     beta(X;Z,Z) =      0.00579289
@ B-freq = 0.016470  C-freq = 0.000000     beta(Y;Z,Z) =      0.00266419
@ B-freq = 0.016470  C-freq = 0.000000     beta(Z;Z,Z) =    -30.05731912
@ B-freq = 0.032941  C-freq = 0.000000     beta(X;Z,Z) =      0.00599472
@ B-freq = 0.032941  C-freq = 0.000000     beta(Y;Z,Z) =      0.00287956
@ B-freq = 0.032941  C-freq = 0.000000     beta(Z;Z,Z) =    -30.60193056
@ B-freq = 0.049411  C-freq = 0.000000     beta(X;Z,Z) =      0.00635613
@ B-freq = 0.049411  C-freq = 0.000000     beta(Y;Z,Z) =      0.00325853
@ B-freq = 0.049411  C-freq = 0.000000     beta(Z;Z,Z) =    -31.54397658
@ B-freq = 0.065882  C-freq = 0.000000     beta(X;Z,Z) =      0.00692039
@ B-freq = 0.065882  C-freq = 0.000000     beta(Y;Z,Z) =      0.00383424
@ B-freq = 0.065882  C-freq = 0.000000     beta(Z;Z,Z) =    -32.93980416
@ B-freq = 0.000000  C-freq = 0.016470     beta(X;X,Z) = beta(X,Z,X)
@ B-freq = 0.000000  C-freq = 0.016470     beta(Y;X,Z) = beta(Y,Z,X)
@ B-freq = 0.000000  C-freq = 0.016470     beta(Z;X,Z) = beta(Z,Z,X)
@ B-freq = 0.016470  C-freq = 0.016470     beta(X;X,Z) = beta(X,Z,X)
@ B-freq = 0.016470  C-freq = 0.016470     beta(Y;X,Z) = beta(Y,Z,X)
@ B-freq = 0.016470  C-freq = 0.016470     beta(Z;X,Z) = beta(Z,Z,X)
@ B-freq = 0.032941  C-freq = 0.016470     beta(X;X,Z) = beta(X,Z,X)
@ B-freq = 0.032941  C-freq = 0.016470     beta(Y;X,Z) = beta(Y,Z,X)
@ B-freq = 0.032941  C-freq = 0.016470     beta(Z;X,Z) = beta(Z,Z,X)
@ B-freq = 0.049411  C-freq = 0.016470     beta(X;X,Z) = beta(X,Z,X)
@ B-freq = 0.049411  C-freq = 0.016470     beta(Y;X,Z) = beta(Y,Z,X)
@ B-freq = 0.049411  C-freq = 0.016470     beta(Z;X,Z) = beta(Z,Z,X)
@ B-freq = 0.065882  C-freq = 0.016470     beta(X;X,Z) = beta(X,Z,X)
@ B-freq = 0.065882  C-freq = 0.016470     beta(Y;X,Z) = beta(Y,Z,X)
@ B-freq = 0.065882  C-freq = 0.016470     beta(Z;X,Z) = beta(Z,Z,X)
@ B-freq = 0.000000  C-freq = 0.016470     beta(X;Y,Z) = beta(X,Z,Y)
@ B-freq = 0.000000  C-freq = 0.016470     beta(Y;Y,Z) = beta(Y,Z,Y)
@ B-freq = 0.000000  C-freq = 0.016470     beta(Z;Y,Z) = beta(Z,Z,Y)
@ B-freq = 0.016470  C-freq = 0.016470     beta(X;Y,Z) = beta(X,Z,Y)
@ B-freq = 0.016470  C-freq = 0.016470     beta(Y;Y,Z) = beta(Y,Z,Y)
@ B-freq = 0.016470  C-freq = 0.016470     beta(Z;Y,Z) = beta(Z,Z,Y)
@ B-freq = 0.032941  C-freq = 0.016470     beta(X;Y,Z) = beta(X,Z,Y)
@ B-freq = 0.032941  C-freq = 0.016470     beta(Y;Y,Z) = beta(Y,Z,Y)
@ B-freq = 0.032941  C-freq = 0.016470     beta(Z;Y,Z) = beta(Z,Z,Y)
@ B-freq = 0.049411  C-freq = 0.016470     beta(X;Y,Z) = beta(X,Z,Y)
@ B-freq = 0.049411  C-freq = 0.016470     beta(Y;Y,Z) = beta(Y,Z,Y)
@ B-freq = 0.049411  C-freq = 0.016470     beta(Z;Y,Z) = beta(Z,Z,Y)
@ B-freq = 0.065882  C-freq = 0.016470     beta(X;Y,Z) = beta(X,Z,Y)
@ B-freq = 0.065882  C-freq = 0.016470     beta(Y;Y,Z) = beta(Y,Z,Y)
@ B-freq = 0.065882  C-freq = 0.016470     beta(Z;Y,Z) = beta(Z,Z,Y)
@ B-freq = 0.000000  C-freq = 0.016470     beta(X;Z,Z) = beta(X,Z,Z)
@ B-freq = 0.000000  C-freq = 0.016470     beta(Y;Z,Z) = beta(Y,Z,Z)
@ B-freq = 0.000000  C-freq = 0.016470     beta(Z;Z,Z) = beta(Z,Z,Z)
@ B-freq = 0.016470  C-freq = 0.016470     beta(X;Z,Z) =      0.00596434
@ B-freq = 0.016470  C-freq = 0.016470     beta(Y;Z,Z) =      0.00282524
@ B-freq = 0.016470  C-freq = 0.016470     beta(Z;Z,Z) =    -30.41872111
@ B-freq = 0.032941  C-freq = 0.016470     beta(X;Z,Z) =      0.00628991
@ B-freq = 0.032941  C-freq = 0.016470     beta(Y;Z,Z) =      0.00314352
@ B-freq = 0.032941  C-freq = 0.016470     beta(Z;Z,Z) =    -31.16189311
@ B-freq = 0.049411  C-freq = 0.016470     beta(X;Z,Z) =      0.00680751
@ B-freq = 0.049411  C-freq = 0.016470     beta(Y;Z,Z) =      0.00364610
@ B-freq = 0.049411  C-freq = 0.016470     beta(Z;Z,Z) =    -32.33025728
@ B-freq = 0.065882  C-freq = 0.016470     beta(X;Z,Z) =      0.00758232
@ B-freq = 0.065882  C-freq = 0.016470     beta(Y;Z,Z) =      0.00437714
@ B-freq = 0.065882  C-freq = 0.016470     beta(Z;Z,Z) =    -33.99631703
@ B-freq = 0.000000  C-freq = 0.032941     beta(X;X,Z) = beta(X,Z,X)
@ B-freq = 0.000000  C-freq = 0.032941     beta(Y;X,Z) = beta(Y,Z,X)
@ B-freq = 0.000000  C-freq = 0.032941     beta(Z;X,Z) = beta(Z,Z,X)
@ B-freq = 0.016470  C-freq = 0.032941     beta(X;X,Z) = beta(X,Z,X)
@ B-freq = 0.016470  C-freq = 0.032941     beta(Y;X,Z) = beta(Y,Z,X)
@ B-freq = 0.016470  C-freq = 0.032941     beta(Z;X,Z) = beta(Z,Z,X)
@ B-freq = 0.032941  C-freq = 0.032941     beta(X;X,Z) = beta(X,Z,X)
@ B-freq = 0.032941  C-freq = 0.032941     beta(Y;X,Z) = beta(Y,Z,X)
@ B-freq = 0.032941  C-freq = 0.032941     beta(Z;X,Z) = beta(Z,Z,X)
@ B-freq = 0.049411  C-freq = 0.032941     beta(X;X,Z) = beta(X,Z,X)
@ B-freq = 0.049411  C-freq = 0.032941     beta(Y;X,Z) = beta(Y,Z,X)
@ B-freq = 0.049411  C-freq = 0.032941     beta(Z;X,Z) = beta(Z,Z,X)
@ B-freq = 0.065882  C-freq = 0.032941     beta(X;X,Z) = beta(X,Z,X)
@ B-freq = 0.065882  C-freq = 0.032941     beta(Y;X,Z) = beta(Y,Z,X)
@ B-freq = 0.065882  C-freq = 0.032941     beta(Z;X,Z) = beta(Z,Z,X)
@ B-freq = 0.000000  C-freq = 0.032941     beta(X;Y,Z) = beta(X,Z,Y)
@ B-freq = 0.000000  C-freq = 0.032941     beta(Y;Y,Z) = beta(Y,Z,Y)
@ B-freq = 0.000000  C-freq = 0.032941     beta(Z;Y,Z) = beta(Z,Z,Y)
@ B-freq = 0.016470  C-freq = 0.032941     beta(X;Y,Z) = beta(X,Z,Y)
@ B-freq = 0.016470  C-freq = 0.032941     beta(Y;Y,Z) = beta(Y,Z,Y)
@ B-freq = 0.016470  C-freq = 0.032941     beta(Z;Y,Z) = beta(Z,Z,Y)
@ B-freq = 0.032941  C-freq = 0.032941     beta(X;Y,Z) = beta(X,Z,Y)
@ B-freq = 0.032941  C-freq = 0.032941     beta(Y;Y,Z) = beta(Y,Z,Y)
@ B-freq = 0.032941  C-freq = 0.032941     beta(Z;Y,Z) = beta(Z,Z,Y)
@ B-freq = 0.049411  C-freq = 0.032941     beta(X;Y,Z) = beta(X,Z,Y)
@ B-freq = 0.049411  C-freq = 0.032941     beta(Y;Y,Z) = beta(Y,Z,Y)
@ B-freq = 0.049411  C-freq = 0.032941     beta(Z;Y,Z) = beta(Z,Z,Y)
@ B-freq = 0.065882  C-freq = 0.032941     beta(X;Y,Z) = beta(X,Z,Y)
@ B-freq = 0.065882  C-freq = 0.032941     beta(Y;Y,Z) = beta(Y,Z,Y)
@ B-freq = 0.065882  C-freq = 0.032941     beta(Z;Y,Z) = beta(Z,Z,Y)
@ B-freq = 0.000000  C-freq = 0.032941     beta(X;Z,Z) = beta(X,Z,Z)
@ B-freq = 0.000000  C-freq = 0.032941     beta(Y;Z,Z) = beta(Y,Z,Z)
@ B-freq = 0.000000  C-freq = 0.032941     beta(Z;Z,Z) = beta(Z,Z,Z)
@ B-freq = 0.016470  C-freq = 0.032941     beta(X;Z,Z) = beta(X,Z,Z)
@ B-freq = 0.016470  C-freq = 0.032941     beta(Y;Z,Z) = beta(Y,Z,Z)
@ B-freq = 0.016470  C-freq = 0.032941     beta(Z;Z,Z) = beta(Z,Z,Z)
@ B-freq = 0.032941  C-freq = 0.032941     beta(X;Z,Z) =      0.00677075
@ B-freq = 0.032941  C-freq = 0.032941     beta(Y;Z,Z) =      0.00358564
@ B-freq = 0.032941  C-freq = 0.032941     beta(Z;Z,Z) =    -32.13097213
@ B-freq = 0.049411  C-freq = 0.032941     beta(X;Z,Z) =      0.00749610
@ B-freq = 0.049411  C-freq = 0.032941     beta(Y;Z,Z) =      0.00424368
@ B-freq = 0.049411  C-freq = 0.032941     beta(Z;Z,Z) =    -33.56798548
@ B-freq = 0.065882  C-freq = 0.032941     beta(X;Z,Z) =      0.00856336
@ B-freq = 0.065882  C-freq = 0.032941     beta(Y;Z,Z) =      0.00517517
@ B-freq = 0.065882  C-freq = 0.032941     beta(Z;Z,Z) =    -35.56682245
@ B-freq = 0.000000  C-freq = 0.049411     beta(X;X,Z) = beta(X,Z,X)
@ B-freq = 0.000000  C-freq = 0.049411     beta(Y;X,Z) = beta(Y,Z,X)
@ B-freq = 0.000000  C-freq = 0.049411     beta(Z;X,Z) = beta(Z,Z,X)
@ B-freq = 0.016470  C-freq = 0.049411     beta(X;X,Z) = beta(X,Z,X)
@ B-freq = 0.016470  C-freq = 0.049411     beta(Y;X,Z) = beta(Y,Z,X)
@ B-freq = 0.016470  C-freq = 0.049411     beta(Z;X,Z) = beta(Z,Z,X)
@ B-freq = 0.032941  C-freq = 0.049411     beta(X;X,Z) = beta(X,Z,X)
@ B-freq = 0.032941  C-freq = 0.049411     beta(Y;X,Z) = beta(Y,Z,X)
@ B-freq = 0.032941  C-freq = 0.049411     beta(Z;X,Z) = beta(Z,Z,X)
@ B-freq = 0.049411  C-freq = 0.049411     beta(X;X,Z) = beta(X,Z,X)
@ B-freq = 0.049411  C-freq = 0.049411     beta(Y;X,Z) = beta(Y,Z,X)
@ B-freq = 0.049411  C-freq = 0.049411     beta(Z;X,Z) = beta(Z,Z,X)
@ B-freq = 0.065882  C-freq = 0.049411     beta(X;X,Z) = beta(X,Z,X)
@ B-freq = 0.065882  C-freq = 0.049411     beta(Y;X,Z) = beta(Y,Z,X)
@ B-freq = 0.065882  C-freq = 0.049411     beta(Z;X,Z) = beta(Z,Z,X)
@ B-freq = 0.000000  C-freq = 0.049411     beta(X;Y,Z) = beta(X,Z,Y)
@ B-freq = 0.000000  C-freq = 0.049411     beta(Y;Y,Z) = beta(Y,Z,Y)
@ B-freq = 0.000000  C-freq = 0.049411     beta(Z;Y,Z) = beta(Z,Z,Y)
@ B-freq = 0.016470  C-freq = 0.049411     beta(X;Y,Z) = beta(X,Z,Y)
@ B-freq = 0.016470  C-freq = 0.049411     beta(Y;Y,Z) = beta(Y,Z,Y)
@ B-freq = 0.016470  C-freq = 0.049411     beta(Z;Y,Z) = beta(Z,Z,Y)
@ B-freq = 0.032941  C-freq = 0.049411     beta(X;Y,Z) = beta(X,Z,Y)
@ B-freq = 0.032941  C-freq = 0.049411     beta(Y;Y,Z) = beta(Y,Z,Y)
@ B-freq = 0.032941  C-freq = 0.049411     beta(Z;Y,Z) = beta(Z,Z,Y)
@ B-freq = 0.049411  C-freq = 0.049411     beta(X;Y,Z) = beta(X,Z,Y)
@ B-freq = 0.049411  C-freq = 0.049411     beta(Y;Y,Z) = beta(Y,Z,Y)
@ B-freq = 0.049411  C-freq = 0.049411     beta(Z;Y,Z) = beta(Z,Z,Y)
@ B-freq = 0.065882  C-freq = 0.049411     beta(X;Y,Z) = beta(X,Z,Y)
@ B-freq = 0.065882  C-freq = 0.049411     beta(Y;Y,Z) = beta(Y,Z,Y)
@ B-freq = 0.065882  C-freq = 0.049411     beta(Z;Y,Z) = beta(Z,Z,Y)
@ B-freq = 0.000000  C-freq = 0.049411     beta(X;Z,Z) = beta(X,Z,Z)
@ B-freq = 0.000000  C-freq = 0.049411     beta(Y;Z,Z) = beta(Y,Z,Z)
@ B-freq = 0.000000  C-freq = 0.049411     beta(Z;Z,Z) = beta(Z,Z,Z)
@ B-freq = 0.016470  C-freq = 0.049411     beta(X;Z,Z) = beta(X,Z,Z)
@ B-freq = 0.016470  C-freq = 0.049411     beta(Y;Z,Z) = beta(Y,Z,Z)
@ B-freq = 0.016470  C-freq = 0.049411     beta(Z;Z,Z) = beta(Z,Z,Z)
@ B-freq = 0.032941  C-freq = 0.049411     beta(X;Z,Z) = beta(X,Z,Z)
@ B-freq = 0.032941  C-freq = 0.049411     beta(Y;Z,Z) = beta(Y,Z,Z)
@ B-freq = 0.032941  C-freq = 0.049411     beta(Z;Z,Z) = beta(Z,Z,Z)
@ B-freq = 0.049411  C-freq = 0.049411     beta(X;Z,Z) =      0.00851173
@ B-freq = 0.049411  C-freq = 0.049411     beta(Y;Z,Z) =      0.00510197
@ B-freq = 0.049411  C-freq = 0.049411     beta(Z;Z,Z) =    -35.33637978
@ B-freq = 0.065882  C-freq = 0.049411     beta(X;Z,Z) =      0.01000172
@ B-freq = 0.065882  C-freq = 0.049411     beta(Y;Z,Z) =      0.00629413
@ B-freq = 0.065882  C-freq = 0.049411     beta(Z;Z,Z) =    -37.75914779
@ B-freq = 0.000000  C-freq = 0.065882     beta(X;X,Z) = beta(X,Z,X)
@ B-freq = 0.000000  C-freq = 0.065882     beta(Y;X,Z) = beta(Y,Z,X)
@ B-freq = 0.000000  C-freq = 0.065882     beta(Z;X,Z) = beta(Z,Z,X)
@ B-freq = 0.016470  C-freq = 0.065882     beta(X;X,Z) = beta(X,Z,X)
@ B-freq = 0.016470  C-freq = 0.065882     beta(Y;X,Z) = beta(Y,Z,X)
@ B-freq = 0.016470  C-freq = 0.065882     beta(Z;X,Z) = beta(Z,Z,X)
@ B-freq = 0.032941  C-freq = 0.065882     beta(X;X,Z) = beta(X,Z,X)
@ B-freq = 0.032941  C-freq = 0.065882     beta(Y;X,Z) = beta(Y,Z,X)
@ B-freq = 0.032941  C-freq = 0.065882     beta(Z;X,Z) = beta(Z,Z,X)
@ B-freq = 0.049411  C-freq = 0.065882     beta(X;X,Z) = beta(X,Z,X)
@ B-freq = 0.049411  C-freq = 0.065882     beta(Y;X,Z) = beta(Y,Z,X)
@ B-freq = 0.049411  C-freq = 0.065882     beta(Z;X,Z) = beta(Z,Z,X)
@ B-freq = 0.065882  C-freq = 0.065882     beta(X;X,Z) = beta(X,Z,X)
@ B-freq = 0.065882  C-freq = 0.065882     beta(Y;X,Z) = beta(Y,Z,X)
@ B-freq = 0.065882  C-freq = 0.065882     beta(Z;X,Z) = beta(Z,Z,X)
@ B-freq = 0.000000  C-freq = 0.065882     beta(X;Y,Z) = beta(X,Z,Y)
@ B-freq = 0.000000  C-freq = 0.065882     beta(Y;Y,Z) = beta(Y,Z,Y)
@ B-freq = 0.000000  C-freq = 0.065882     beta(Z;Y,Z) = beta(Z,Z,Y)
@ B-freq = 0.016470  C-freq = 0.065882     beta(X;Y,Z) = beta(X,Z,Y)
@ B-freq = 0.016470  C-freq = 0.065882     beta(Y;Y,Z) = beta(Y,Z,Y)
@ B-freq = 0.016470  C-freq = 0.065882     beta(Z;Y,Z) = beta(Z,Z,Y)
@ B-freq = 0.032941  C-freq = 0.065882     beta(X;Y,Z) = beta(X,Z,Y)
@ B-freq = 0.032941  C-freq = 0.065882     beta(Y;Y,Z) = beta(Y,Z,Y)
@ B-freq = 0.032941  C-freq = 0.065882     beta(Z;Y,Z) = beta(Z,Z,Y)
@ B-freq = 0.049411  C-freq = 0.065882     beta(X;Y,Z) = beta(X,Z,Y)
@ B-freq = 0.049411  C-freq = 0.065882     beta(Y;Y,Z) = beta(Y,Z,Y)
@ B-freq = 0.049411  C-freq = 0.065882     beta(Z;Y,Z) = beta(Z,Z,Y)
@ B-freq = 0.065882  C-freq = 0.065882     beta(X;Y,Z) = beta(X,Z,Y)
@ B-freq = 0.065882  C-freq = 0.065882     beta(Y;Y,Z) = beta(Y,Z,Y)
@ B-freq = 0.065882  C-freq = 0.065882     beta(Z;Y,Z) = beta(Z,Z,Y)
@ B-freq = 0.000000  C-freq = 0.065882     beta(X;Z,Z) = beta(X,Z,Z)
@ B-freq = 0.000000  C-freq = 0.065882     beta(Y;Z,Z) = beta(Y,Z,Z)
@ B-freq = 0.000000  C-freq = 0.065882     beta(Z;Z,Z) = beta(Z,Z,Z)
@ B-freq = 0.016470  C-freq = 0.065882     beta(X;Z,Z) = beta(X,Z,Z)
@ B-freq = 0.016470  C-freq = 0.065882     beta(Y;Z,Z) = beta(Y,Z,Z)
@ B-freq = 0.016470  C-freq = 0.065882     beta(Z;Z,Z) = beta(Z,Z,Z)
@ B-freq = 0.032941  C-freq = 0.065882     beta(X;Z,Z) = beta(X,Z,Z)
@ B-freq = 0.032941  C-freq = 0.065882     beta(Y;Z,Z) = beta(Y,Z,Z)
@ B-freq = 0.032941  C-freq = 0.065882     beta(Z;Z,Z) = beta(Z,Z,Z)
@ B-freq = 0.049411  C-freq = 0.065882     beta(X;Z,Z) = beta(X,Z,Z)
@ B-freq = 0.049411  C-freq = 0.065882     beta(Y;Z,Z) = beta(Y,Z,Z)
@ B-freq = 0.049411  C-freq = 0.065882     beta(Z;Z,Z) = beta(Z,Z,Z)
@ B-freq = 0.065882  C-freq = 0.065882     beta(X;Z,Z) =      0.01212553
@ B-freq = 0.065882  C-freq = 0.065882     beta(Y;Z,Z) =      0.00782311
@ B-freq = 0.065882  C-freq = 0.065882     beta(Z;Z,Z) =    -40.74078225

  Total CPU  time used in RESPONSE:  6 minutes  9 seconds
  Total wall time used in RESPONSE:  6 minutes 11 seconds


                   .-------------------------------------------.
                   | End of Dynamic Property Section (RESPONS) |
                   `-------------------------------------------'

  Total CPU  time used in DALTON:  6 minutes 28 seconds
  Total wall time used in DALTON:  6 minutes 30 seconds

 
     Date and time (Linux)  : Tue Jul 23 13:58:56 2024
     Host name              : dn012                                   
