

     ************************************************************************
     *************** Dalton - An Electronic Structure Program ***************
     ************************************************************************

    This is output from DALTON release Dalton2020.0 (2020)
         ( Web site: http://daltonprogram.org )

   ----------------------------------------------------------------------------

    NOTE:
     
    Dalton is an experimental code for the evaluation of molecular
    properties using (MC)SCF, DFT, CI, and CC wave functions.
    The authors accept no responsibility for the performance of
    the code or for the correctness of the results.
     
    The code (in whole or part) is provided under a licence and
    is not to be reproduced for further distribution without
    the written permission of the authors or their representatives.
     
    See the home page "http://daltonprogram.org" for further information.
     
    If results obtained with this code are published,
    the appropriate citations would be both of:
     
       K. Aidas, C. Angeli, K. L. Bak, V. Bakken, R. Bast,
       L. Boman, O. Christiansen, R. Cimiraglia, S. Coriani,
       P. Dahle, E. K. Dalskov, U. Ekstroem,
       T. Enevoldsen, J. J. Eriksen, P. Ettenhuber, B. Fernandez,
       L. Ferrighi, H. Fliegl, L. Frediani, K. Hald, A. Halkier,
       C. Haettig, H. Heiberg, T. Helgaker, A. C. Hennum,
       H. Hettema, E. Hjertenaes, S. Hoest, I.-M. Hoeyvik,
       M. F. Iozzi, B. Jansik, H. J. Aa. Jensen, D. Jonsson,
       P. Joergensen, J. Kauczor, S. Kirpekar,
       T. Kjaergaard, W. Klopper, S. Knecht, R. Kobayashi, H. Koch,
       J. Kongsted, A. Krapp, K. Kristensen, A. Ligabue,
       O. B. Lutnaes, J. I. Melo, K. V. Mikkelsen, R. H. Myhre,
       C. Neiss, C. B. Nielsen, P. Norman, J. Olsen,
       J. M. H. Olsen, A. Osted, M. J. Packer, F. Pawlowski,
       T. B. Pedersen, P. F. Provasi, S. Reine, Z. Rinkevicius,
       T. A. Ruden, K. Ruud, V. Rybkin, P. Salek, C. C. M. Samson,
       A. Sanchez de Meras, T. Saue, S. P. A. Sauer,
       B. Schimmelpfennig, K. Sneskov, A. H. Steindal,
       K. O. Sylvester-Hvid, P. R. Taylor, A. M. Teale,
       E. I. Tellgren, D. P. Tew, A. J. Thorvaldsen, L. Thoegersen,
       O. Vahtras, M. A. Watson, D. J. D. Wilson, M. Ziolkowski
       and H. Agren,
       "The Dalton quantum chemistry program system",
       WIREs Comput. Mol. Sci. 2014, 4:269–284 (doi: 10.1002/wcms.1172)
     
    and
     
       Dalton, a molecular electronic structure program,
       Release Dalton2020.0 (2020), see http://daltonprogram.org
   ----------------------------------------------------------------------------

    Authors in alphabetical order (Major contribution(s) in parenthesis):

  Kestutis Aidas,           Vilnius University,           Lithuania   (QM/MM)
  Celestino Angeli,         University of Ferrara,        Italy       (NEVPT2)
  Keld L. Bak,              UNI-C,                        Denmark     (AOSOPPA, non-adiabatic coupling, magnetic properties)
  Vebjoern Bakken,          University of Oslo,           Norway      (DALTON; geometry optimizer, symmetry detection)
  Radovan Bast,             UiT The Arctic U. of Norway,  Norway      (DALTON installation and execution frameworks)
  Pablo Baudin,             University of Valencia,       Spain       (Cholesky excitation energies)
  Linus Boman,              NTNU,                         Norway      (Cholesky decomposition and subsystems)
  Bruno N. Cabral Tenorio,  Technical Univ. of Denmark,   Denmark     (Lanczos-based CC methods)
  Ove Christiansen,         Aarhus University,            Denmark     (CC module)
  Renzo Cimiraglia,         University of Ferrara,        Italy       (NEVPT2)
  Sonia Coriani,            Technical Univ. of Denmark,   Denmark     (CC and RESPONS modules)
  Janusz Cukras,            University of Warsaw,         Poland      (MChD in RESPONS)
  Paal Dahle,               University of Oslo,           Norway      (Parallelization)
  Erik K. Dalskov,          UNI-C,                        Denmark     (SOPPA)
  Thomas Enevoldsen,        Univ. of Southern Denmark,    Denmark     (SOPPA)
  Janus J. Eriksen,         Aarhus University,            Denmark     (Polarizable embedding, TDA)
  Rasmus Faber,             Technical Univ. of Denmark,   Denmark     (Vib.avg. NMR w. SOPPA, parallel AO-SOPPA, CVS-CC and EOMCC)
  Tobias Fahleson,          KTH Stockholm,                Sweden      (Damped cubic response)
  Berta Fernandez,          U. of Santiago de Compostela, Spain       (Doublet spin, ESR in RESPONS)
  Lara Ferrighi,            Aarhus University,            Denmark     (PCM Cubic response)
  Heike Fliegl,             University of Oslo,           Norway      (CCSD(R12))
  Luca Frediani,            UiT The Arctic U. of Norway,  Norway      (PCM)
  Emmanuel Fromager,        Univ. Strasbourg,             France      (MC-srDFT)
  Bin Gao,                  UiT The Arctic U. of Norway,  Norway      (Gen1Int library)
  Andre S. P. Gomes,        CNRS/Universite de Lille,     France      (Frozen density embedding)
  Christof Haettig,         Ruhr-University Bochum,       Germany     (CC module)
  Kasper Hald,              Aarhus University,            Denmark     (CC module)
  Asger Halkier,            Aarhus University,            Denmark     (CC module)
  Frederik Beyer Hansen,    University of Copenhagen,     Denmark     (Parallel AO-SOPPA)
  Erik D. Hedegaard,        Univ. of Southern Denmark,    Denmark     (Polarizable embedding, QM/MM, and MC-srDFT)
  Hanne Heiberg,            University of Oslo,           Norway      (Geometry analysis, selected one-electron integrals)
  Trygve Helgaker,          University of Oslo,           Norway      (DALTON; ABACUS, ERI, DFT modules, London, and much more)
  Alf Christian Hennum,     University of Oslo,           Norway      (Parity violation)
  Hinne Hettema,            University of Auckland,       New Zealand (Quadratic response in RESPONS; SIRIUS supersymmetry)
  Eirik Hjertenaes,         NTNU,                         Norway      (Cholesky decomposition)
  Pi A. B. Haase,           University of Copenhagen,     Denmark     (Triplet AO-SOPPA)
  Maria Francesca Iozzi,    University of Oslo,           Norway      (RPA)
  Christoph Jacob           TU Braunschweig               Germany     (Frozen density embedding)
  Brano Jansik              Technical Univ. of Ostrava    Czech Rep.  (DFT cubic response)
  Hans Joergen Aa. Jensen,  Univ. of Southern Denmark,    Denmark     (DALTON; SIRIUS, RESPONS, ABACUS, MC-srDFT, and much more)
  Dan Jonsson,              UiT The Arctic U. of Norway,  Norway      (Cubic response in RESPONS module)
  Poul Joergensen,          Aarhus University,            Denmark     (RESPONS, ABACUS, and CC modules)
  Maciej Kaminski,          University of Warsaw,         Poland      (CPPh in RESPONS)
  Joanna Kauczor,           Linkoeping University,        Sweden      (Complex polarization propagator (CPP) module)
  Sheela Kirpekar,          Univ. of Southern Denmark,    Denmark     (Mass-velocity & Darwin integrals)
  Erik Kjellgren,           Univ. of Southern Denmark,    Denmark     (MC-srDFT)
  Wim Klopper,              KIT Karlsruhe,                Germany     (R12 code in CC, SIRIUS, and ABACUS modules)
  Stefan Knecht,            ETH Zurich,                   Switzerland (Parallel CI and MCSCF, MC-srDFT)
  Rika Kobayashi,           Australian National Univ.,    Australia   (DIIS in CC, London in MCSCF)
  Henrik Koch,              NTNU,                         Norway      (CC module, Cholesky decomposition)
  Jacob Kongsted,           Univ. of Southern Denmark,    Denmark     (Polarizable embedding, polarizable density embedding, QM/MM)
  Andrea Ligabue,           University of Modena,         Italy       (CTOCD, AOSOPPA)
  Nanna H. List             Univ. of Southern Denmark,    Denmark     (Polarizable embedding)
  Ola B. Lutnaes,           University of Oslo,           Norway      (DFT Hessian)
  Juan I. Melo,             University of Buenos Aires,   Argentina   (LRESC, Relativistic Effects on NMR Shieldings)
  Kurt V. Mikkelsen,        University of Copenhagen,     Denmark     (MC-SCRF and QM/MM)
  Rolf H. Myhre,            NTNU,                         Norway      (Subsystems and CC3)
  Christian Neiss,          Univ. Erlangen-Nuernberg,     Germany     (CCSD(R12))
  Christian B. Nielsen,     University of Copenhagen,     Denmark     (QM/MM)
  Patrick Norman,           KTH Stockholm,                Sweden      (Cubic response and complex frequency response in RESPONS)
  Jeppe Olsen,              Aarhus University,            Denmark     (SIRIUS CI/density modules)
  Jogvan Magnus H. Olsen,   Aarhus University,            Denmark     (Polarizable embedding and polarizable density embedding)
  Anders Osted,             Copenhagen University,        Denmark     (QM/MM)
  Martin J. Packer,         University of Sheffield,      UK          (SOPPA)
  Filip Pawlowski,          Kazimierz Wielki University,  Poland      (CC3)
  Morten N. Pedersen,       Univ. of Southern Denmark,    Denmark     (Polarizable embedding)
  Thomas B. Pedersen,       University of Oslo,           Norway      (Cholesky decomposition)
  Patricio F. Provasi,      University of Northeastern,   Argentina   (Analysis of coupling constants in localized orbitals)
  Peter Reinholdt,          Univ. of Southern Denmark,    Denmark     (Polarizable embedding and polarizable density embedding)
  Zilvinas Rinkevicius,     KTH Stockholm,                Sweden      (open-shell DFT, ESR)
  Elias Rudberg,            KTH Stockholm,                Sweden      (DFT grid and basis info)
  Torgeir A. Ruden,         University of Oslo,           Norway      (Numerical derivatives in ABACUS)
  Kenneth Ruud,             UiT The Arctic U. of Norway,  Norway      (DALTON; ABACUS magnetic properties and much more)
  Pawel Salek,              KTH Stockholm,                Sweden      (DALTON; DFT code)
  Claire C. M. Samson       University of Karlsruhe       Germany     (Boys localization, r12 integrals in ERI)
  Alfredo Sanchez de Meras, University of Valencia,       Spain       (CC module, Cholesky decomposition)
  Trond Saue,               Paul Sabatier University,     France      (direct Fock matrix construction)
  Stephan P. A. Sauer,      University of Copenhagen,     Denmark     (SOPPA(CCSD), SOPPA prop., AOSOPPA, vibrational g-factors)
  Bernd Schimmelpfennig,    Forschungszentrum Karlsruhe,  Germany     (AMFI module)
  Anna K. Schnack-Petersen, University of Copenhagen,     Denmark     (RPA(D) and HRPA(D) properties in AOSOPPA)
  Kristian Sneskov,         Aarhus University,            Denmark     (Polarizable embedding, QM/MM)
  Arnfinn H. Steindal,      UiT The Arctic U. of Norway,  Norway      (parallel QM/MM, polarizable embedding)
  Casper Steinmann,         Aalborg University,           Denmark     (QFIT, polarizable embedding)
  K. O. Sylvester-Hvid,     University of Copenhagen,     Denmark     (MC-SCRF)
  Peter R. Taylor,          VLSCI/Univ. of Melbourne,     Australia   (Symmetry handling ABACUS, integral transformation)
  Andrew M. Teale,          University of Nottingham,     England     (DFT-AC, DFT-D)
  David P. Tew,             University of Bristol,        England     (CCSD(R12))
  Julien Toulouse,          Sorbonne Univ.,               France      (MC-srDFT)
  Olav Vahtras,             KTH Stockholm,                Sweden      (Triplet response, spin-orbit, ESR, TDDFT, open-shell DFT)
  Lucas Visscher,           Vrije Universiteit Amsterdam, Netherlands (Frozen density embedding)
  David J. Wilson,          La Trobe University,          Australia   (DFT Hessian and DFT magnetizabilities)
  Hans Agren,               KTH Stockholm,                Sweden      (SIRIUS module, RESPONS, MC-SCRF solvation)
 --------------------------------------------------------------------------------

     Date and time (Linux)  : Mon Jul 22 11:08:12 2024
     Host name              : sn-mem                                  

 * Work memory size             :    64000000 =  488.28 megabytes.

 * Directories for basis set searches:
   1) /gpfs/projects/rjh/adrian/beta_paper_database/dalton/hf/H2O/dipole
   2) /gpfs/projects/rjh/adrian/dalton/build/basis


Compilation information
-----------------------

 Who compiled             | ahurtado
 Host                     | sn-mem
 System                   | Linux-3.10.0-1160.81.1.el7.x86_64
 CMake generator          | Unix Makefiles
 Processor                | x86_64
 64-bit integers          | OFF
 MPI                      | ON
 Fortran compiler         | /gpfs/software/intel/oneAPI/2021_4/mpi/2021.4.0/bi
                          | n/mpiifort
 Fortran compiler version | unknown
 C compiler               | /gpfs/software/intel/oneAPI/2021_4/mpi/2021.4.0/bi
                          | n/mpiicc
 C compiler version       | unknown
 C++ compiler             | /gpfs/software/intel/oneAPI/2021_4/mpi/2021.4.0/bi
                          | n/mpiicpc
 C++ compiler version     | unknown
 Static linking           | OFF
 Last Git revision        | 66052b3af5ea7225e31178bf9a8b031913c72190
 Git branch               | (HEAD detached at Dalton2020.0)
 Configuration time       | 2024-05-30 10:57:17.145493

 * MPI parallel run using 16 processes.


   Content of the .dal input file
 ----------------------------------

**DALTON INPUT
.RUN RESPONSE
.DIRECT
**WAVE FUNCTIONS
.HF
**PROPERTIES
**RESPONSE
*QUADRA
.DIPLEN
.FREQUENCIES
5
0.0 0.0198666875 0.039733375 0.0596000625 0.07946675
**END OF DALTON INPUT


   Content of the .mol file
 ----------------------------

BASIS
t-aug-cc-pCVQZ
blah
blah
Atomtype=2 Angstrom Charge=0 Nosymmmetry
Charge=8 Atoms=1
O_a 0.000000000000 0.000000000000 0.117299997610
Charge=1 Atoms=2
H_a 0.000000000000 0.757199998838 -0.469200001024
H_b 0.000000000000 -0.757199998838 -0.469200001024


       *******************************************************************
       *********** Output from DALTON general input processing ***********
       *******************************************************************

 --------------------------------------------------------------------------------
   Overall default print level:    0
   Print level for DALTON.STAT:    1

    Parallel calculation using MPI
    AO-direct calculation (in sections where implemented)
    HERMIT 1- and 2-electron integral sections will be executed
    "Old" integral transformation used (limited to max 255 basis functions)
    Wave function sections will be executed (SIRIUS module)
    Dynamic molecular response properties section will be executed (RESPONSE module)
 --------------------------------------------------------------------------------


   ****************************************************************************
   *************** Output of molecule and basis set information ***************
   ****************************************************************************


    The two title cards from your ".mol" input:
    ------------------------------------------------------------------------
 1: blah                                                                    
 2: blah                                                                    
    ------------------------------------------------------------------------

  Coordinates are entered in Angstrom and converted to atomic units.
          - Conversion factor : 1 bohr = 0.52917721 A

  Atomic type no.    1
  --------------------
  Nuclear charge:   8.00000
  Number of symmetry independent centers:    1
  Number of basis sets to read;    2
  Basis set file used for this atomic type with Z =   8 :
     "/gpfs/projects/rjh/adrian/dalton/build/basis/aug-cc-pCVQZ"

  Atomic type no.    2
  --------------------
  Nuclear charge:   1.00000
  Number of symmetry independent centers:    2
  Number of basis sets to read;    2
  Basis set file used for this atomic type with Z =   1 :
     "/gpfs/projects/rjh/adrian/dalton/build/basis/aug-cc-pCVQZ"


                         SYMGRP: Point group information
                         -------------------------------

@    Point group: C1 


                                 Isotopic Masses
                                 ---------------

                           O_a        15.994915
                           H_a         1.007825
                           H_b         1.007825

                       Total mass:    18.010565 amu
                       Natural abundance:  99.730 %

 Center-of-mass coordinates (a.u.):    0.000000    0.000000    0.097627
 Center-of-mass coordinates (Angs):    0.000000    0.000000    0.051662


  Atoms and basis sets
  --------------------

  Number of atom types :    2
  Total number of atoms:    3

  Basis set used is "t-aug-cc-pCVQZ" from the basis set library.

  label    atoms   charge   prim   cont     basis
  ----------------------------------------------------------------------
  O_          1    8.0000   172   159      [18s12p8d6f4g|11s10p8d6f4g]                        
  H_          2    1.0000    80    78      [9s6p5d4f|7s6p5d4f]                                
  ----------------------------------------------------------------------
  total:      3   10.0000   332   315
  ----------------------------------------------------------------------
  Spherical harmonic basis used.

  Threshold for neglecting AO integrals:  1.00D-12


  Cartesian Coordinates (a.u.)
  ----------------------------

  Total number of coordinates:    9
  O_a     :     1  x   0.0000000000    2  y   0.0000000000    3  z   0.2216648699
  H_a     :     4  x   0.0000000000    5  y   1.4309006196    6  z  -0.8866594998
  H_b     :     7  x   0.0000000000    8  y  -1.4309006196    9  z  -0.8866594998


   Interatomic separations (in Angstrom):
   --------------------------------------

            O_a         H_a         H_b   
            ------      ------      ------
 O_a   :    0.000000
 H_a   :    0.957776    0.000000
 H_b   :    0.957776    1.514400    0.000000


  Max    interatomic separation is    1.5144 Angstrom (    2.8618 Bohr)
  between atoms    3 and    2, "H_b   " and "H_a   ".

  Min HX interatomic separation is    0.9578 Angstrom (    1.8099 Bohr)


  Bond distances (Angstrom):
  --------------------------

                  atom 1     atom 2       distance
                  ------     ------       --------
  bond distance:  H_a        O_a          0.957776
  bond distance:  H_b        O_a          0.957776


  Bond angles (degrees):
  ----------------------

                  atom 1     atom 2     atom 3         angle
                  ------     ------     ------         -----
  bond angle:     H_a        O_a        H_b          104.480




 Principal moments of inertia (u*A**2) and principal axes
 --------------------------------------------------------

   IA       0.615752          0.000000    1.000000    0.000000
   IB       1.155677          0.000000    0.000000    1.000000
   IC       1.771429          1.000000    0.000000    0.000000


 Rotational constants
 --------------------

@    The molecule is planar.

               A                   B                   C

         820751.0438         437301.3971         285294.6081 MHz
           27.377308           14.586804            9.516404 cm-1


@  Nuclear repulsion energy :    9.189533777587 Hartree


                     .---------------------------------------.
                     | Starting in Integral Section (HERMIT) |
                     `---------------------------------------'



 ***************************************************************************************
 ****************** Output from **INTEGRALS input processing (HERMIT) ******************
 ***************************************************************************************


 - Using defaults, no **INTEGRALS input found

 Default print level:        1

 Calculation of one-electron Hamiltonian integrals.

 Center of mass  (bohr):      0.000000000000      0.000000000000      0.097626894688
 Operator center (bohr):      0.000000000000      0.000000000000      0.000000000000
 Gauge origin    (bohr):      0.000000000000      0.000000000000      0.000000000000
 Dipole origin   (bohr):      0.000000000000      0.000000000000      0.000000000000


     ************************************************************************
     ************************** Output from HERINT **************************
     ************************************************************************



                      Nuclear contribution to dipole moments
                      --------------------------------------

                 au               Debye          C m (/(10**-30)

      x      0.00000000         0.00000000         0.00000000
      y      0.00000000         0.00000000         0.00000000
      z     -0.00000004        -0.00000010        -0.00000034


  Time used in GABGEN     is       0.96 seconds
  Total CPU  time used in HERMIT:   1.15 seconds
  Total wall time used in HERMIT:   1.16 seconds


                        .----------------------------------.
                        | End of Integral Section (HERMIT) |
                        `----------------------------------'



                   .--------------------------------------------.
                   | Starting in Wave Function Section (SIRIUS) |
                   `--------------------------------------------'



@ Primary orbitals are deleted during canonical orthonormalization
@   because of detected numerical linear dependence or too large coefficients.
@ Eigenvalue threshold for num. lin. dep. =  1.00D-06

@   2 MO components are deleted in symmetry    1
 Overlap eigenvalues of the deleted orbitals:
  4.31D-07  7.85D-08

 Max MO coeff. of last deleted MO & limit:  1.07D+03  1.00D+03

WARNING: Orbitals have been deleted because of numerical
   linear dependence although not requested in input.

 *** Output from Huckel module :

     Using EWMO model:          T
     Using EHT  model:          F
     Number of Huckel orbitals each symmetry:    7

 EWMO - Energy Weighted Maximum Overlap - is a Huckel type method,
        which normally is better than Extended Huckel Theory.
 Reference: Linderberg and Ohrn, Propagators in Quantum Chemistry (Wiley, 1973)

 Huckel EWMO eigenvalues for symmetry :  1
          -20.684959      -1.611341      -0.778168      -0.688462      -0.616200
           -0.232449      -0.168322

 **********************************************************************
 *SIRIUS* a direct, restricted step, second order MCSCF program       *
 **********************************************************************

 
     Date and time (Linux)  : Mon Jul 22 11:08:13 2024
     Host name              : sn-mem                                  

 Title lines from ".mol" input file:
     blah                                                                    
     blah                                                                    

 Print level on unit LUPRI =   2 is   0
 Print level on unit LUW4  =   2 is   5

@    Restricted, closed shell Hartree-Fock calculation.

@    Time-dependent Hartree-Fock calculation (random phase approximation).
 Fock matrices are calculated directly and in parallel without use of integrals on disk.

 Initial molecular orbitals are obtained according to
 ".MOSTART EWMO  " input option

     Wave function specification
     ============================
@    Wave function type        --- HF ---
@    Number of closed shell electrons          10
@    Number of electrons in active shells       0
@    Total charge of the molecule               0

@    Spin multiplicity and 2 M_S                1         0
@    Total number of symmetries                 1 (point group: C1 )
@    Reference state symmetry                   1 (irrep name : A  )

     Orbital specifications
     ======================
@    Abelian symmetry species          All |    1
@                                          |  A  
                                       --- |  ---
@    Occupied SCF orbitals               5 |    5
@    Secondary orbitals                308 |  308
@    Total number of orbitals          313 |  313
@    Number of basis functions         315 |  315

     Optimization information
     ========================
@    Number of configurations                 1
@    Number of orbital rotations           1540
     ------------------------------------------
@    Total number of variables             1541

     Maximum number of Fock   iterations      0
     Maximum number of DIIS   iterations     60
     Maximum number of QC-SCF iterations     60
     Threshold for SCF convergence     1.00D-05

    INFORMATION: Switched to "new" integral transformation (from 1988 ;-) )
    because more than 255 basis functions.


 ***********************************************
 ***** DIIS acceleration of SCF iterations *****
 ***********************************************

 C1-DIIS algorithm; max error vectors =    8

 Iter      Total energy        Error norm    Delta(E)  DIIS dim.
 -----------------------------------------------------------------------------
   1  Screening settings (-IFTHRS, JTDIIS, DIFDEN, times)   -8    1    T  3.15D+00  3.16D+00
@  1    -75.8766321316        3.18566D+00   -7.59D+01    1
      Virial theorem: -V/T =      1.997060
@    MULPOP   O_a    -2.01; H_a     1.00; H_b     1.00; 
   1  Level shift: doubly occupied orbital energies shifted by -2.00D-01
 -----------------------------------------------------------------------------
   2  Screening settings (-IFTHRS, JTDIIS, DIFDEN, times)   -8    2    T  3.27D+00  3.28D+00
@  2    -76.0548753219        4.23663D-01   -1.78D-01    2
      Virial theorem: -V/T =      2.003312
@    MULPOP   O_a    -0.87; H_a     0.44; H_b     0.44; 
   2  Level shift: doubly occupied orbital energies shifted by -5.00D-02
 -----------------------------------------------------------------------------
   3  Screening settings (-IFTHRS, JTDIIS, DIFDEN, times)  -12    3    F  3.33D+00  3.34D+00
@  3    -76.0647490292        1.10994D-01   -9.87D-03    3
      Virial theorem: -V/T =      1.999981
@    MULPOP   O_a    -0.79; H_a     0.40; H_b     0.40; 
   3  Level shift: doubly occupied orbital energies shifted by -2.50D-02
 -----------------------------------------------------------------------------
   4  Screening settings (-IFTHRS, JTDIIS, DIFDEN, times)  -12    4    T  3.34D+00  3.35D+00
@  4    -76.0658858085        5.40838D-02   -1.14D-03    4
      Virial theorem: -V/T =      2.001786
@    MULPOP   O_a    -0.77; H_a     0.39; H_b     0.39; 
   4  Level shift: doubly occupied orbital energies shifted by -1.25D-02
 -----------------------------------------------------------------------------
   5  Screening settings (-IFTHRS, JTDIIS, DIFDEN, times)  -12    5    T  3.30D+00  3.30D+00
@  5    -76.0660510127        1.22420D-02   -1.65D-04    5
      Virial theorem: -V/T =      2.000805
@    MULPOP   O_a    -0.79; H_a     0.39; H_b     0.39; 
 -----------------------------------------------------------------------------
   6  Screening settings (-IFTHRS, JTDIIS, DIFDEN, times)  -12    6    T  3.25D+00  3.26D+00
@  6    -76.0660746468        2.99916D-03   -2.36D-05    6
      Virial theorem: -V/T =      2.000937
@    MULPOP   O_a    -0.79; H_a     0.39; H_b     0.39; 
 -----------------------------------------------------------------------------
   7  Screening settings (-IFTHRS, JTDIIS, DIFDEN, times)  -12    7    T  3.28D+00  3.28D+00
@  7    -76.0660763534        5.77333D-04   -1.71D-06    7
      Virial theorem: -V/T =      2.000947
@    MULPOP   O_a    -0.79; H_a     0.39; H_b     0.39; 
 -----------------------------------------------------------------------------
   8  Screening settings (-IFTHRS, JTDIIS, DIFDEN, times)  -12    8    T  3.28D+00  3.28D+00
@  8    -76.0660764047        8.77682D-05   -5.13D-08    8
      Virial theorem: -V/T =      2.000953
@    MULPOP   O_a    -0.79; H_a     0.39; H_b     0.39; 
 -----------------------------------------------------------------------------
   9  Screening settings (-IFTHRS, JTDIIS, DIFDEN, times)  -12    9    T  3.31D+00  3.32D+00
@  9    -76.0660764057        1.59211D-05   -1.04D-09    8
      Virial theorem: -V/T =      2.000953
@    MULPOP   O_a    -0.79; H_a     0.39; H_b     0.39; 
 -----------------------------------------------------------------------------
  10  Screening settings (-IFTHRS, JTDIIS, DIFDEN, times)  -12   10    T  3.28D+00  3.29D+00
@ 10    -76.0660764058        3.25791D-06   -3.40D-11    8

@ *** DIIS converged in  10 iterations !
@     Converged SCF energy, gradient:    -76.066076405759    3.26D-06
    - total time used in SIRFCK :              0.00 seconds


 *** SCF orbital energy analysis ***

 Only the 20 lowest virtual orbital energies printed in each symmetry.

 Number of electrons :   10
 Orbital occupations :    5

 Sym       Hartree-Fock orbital energies

1 A     -20.56476749    -1.35257400    -0.71743695    -0.58496142    -0.51045627
          0.00159027     0.00327035     0.00809088     0.00893458     0.01028292
          0.01198271     0.01869994     0.01885987     0.01890533     0.02355876
          0.02414998     0.02858050     0.02971862     0.04083139     0.04097800
          0.05083087     0.05135986     0.05155879     0.05300227     0.05368521

    E(LUMO) :     0.00159027 au (symmetry 1)
  - E(HOMO) :    -0.51045627 au (symmetry 1)
  ------------------------------------------
    gap     :     0.51204653 au

 --- Writing SIRIFC interface file

 CPU and wall time for SCF :      33.348      33.434


                       .-----------------------------------.
                       | --- Final results from SIRIUS --- |
                       `-----------------------------------'


@    Spin multiplicity:           1
@    Spatial symmetry:            1 ( irrep  A   in C1  )
@    Total charge of molecule:    0

@    Final HF energy:             -76.066076405759                 
@    Nuclear repulsion:             9.189533777587
@    Electronic energy:           -85.255610183346

@    Final gradient norm:           0.000003257908

 
     Date and time (Linux)  : Mon Jul 22 11:08:47 2024
     Host name              : sn-mem                                  

File label for MO orbitals:  22Jul24   FOCKDIIS

 (Only coefficients > 0.0100 are printed.)

 Molecular orbitals for symmetry species 1  (A  )
 ------------------------------------------------

    Orbital         1        2        3        4        5        6        7
   1 O_a :1s    -1.0013   0.0015  -0.0000   0.0008   0.0000  -0.0004  -0.0000
   2 O_a :1s    -0.0070  -0.8935  -0.0000  -0.2897   0.0000  -0.0186  -0.0000
   4 O_a :1s     0.0085   0.0432   0.0000  -0.0530  -0.0000  -0.0097  -0.0000
   5 O_a :1s     0.0028   0.0164   0.0000  -0.2538  -0.0000  -0.0501   0.0000
   9 O_a :1s    -0.0022  -0.0609   0.0000  -0.0676  -0.0000  -0.2741   0.0000
  10 O_a :1s    -0.0195  -0.1923   0.0000  -0.1212  -0.0000  -4.0238   0.0000
  11 O_a :1s     0.0000   0.0058  -0.0000  -0.0052   0.0000   2.4302  -0.0000
  12 O_a :2px    0.0000   0.0000   0.0000   0.0000   0.9161   0.0000   0.0000
  13 O_a :2py   -0.0000  -0.0000  -0.7244   0.0000   0.0000  -0.0000  -0.0036
  14 O_a :2pz    0.0054   0.1103   0.0000  -0.8037   0.0000   0.0149  -0.0000
  19 O_a :2py    0.0000   0.0000   0.0170  -0.0000   0.0000   0.0000   0.0006
  20 O_a :2pz   -0.0038   0.0054  -0.0000   0.0148  -0.0000   0.0025   0.0000
  21 O_a :2px    0.0000   0.0000   0.0000   0.0000   0.0377   0.0000   0.0000
  22 O_a :2py   -0.0000  -0.0000   0.0298   0.0000   0.0000  -0.0000  -0.0333
  23 O_a :2pz    0.0001  -0.0005  -0.0000   0.0299   0.0000  -0.0211   0.0000
  33 O_a :2px    0.0000   0.0000   0.0000   0.0000   0.0629   0.0000   0.0000
  34 O_a :2py    0.0000   0.0000   0.0468   0.0000  -0.0000   0.0000  -0.4578
  35 O_a :2pz    0.0003   0.0042   0.0000  -0.0321   0.0000  -0.0924   0.0000
  36 O_a :2px    0.0000   0.0000   0.0000   0.0000   0.0256   0.0000   0.0000
  37 O_a :2py    0.0000   0.0000   0.0029   0.0000   0.0000   0.0000  -0.9866
  38 O_a :2pz    0.0003   0.0024  -0.0000  -0.0141   0.0000  -0.2702  -0.0000
  40 O_a :2py    0.0000   0.0000  -0.0000   0.0000   0.0000   0.0000  -1.7838
  41 O_a :2pz    0.0000   0.0001  -0.0000  -0.0020   0.0000  -0.4981  -0.0000
  58 O_a :3d1-   0.0000   0.0000   0.0186   0.0000  -0.0000  -0.0000   0.0001
  63 O_a :3d1-  -0.0000   0.0000   0.0284  -0.0000  -0.0000  -0.0000  -0.0013
  64 O_a :3d0   -0.0001  -0.0036  -0.0000   0.0202  -0.0000  -0.0004  -0.0000
  65 O_a :3d1+  -0.0000  -0.0000  -0.0000  -0.0000  -0.0137  -0.0000  -0.0000
  70 O_a :3d1+  -0.0000  -0.0000  -0.0000  -0.0000  -0.0124  -0.0000  -0.0000
  71 O_a :3d2+   0.0002   0.0040  -0.0000   0.0090  -0.0000  -0.0150  -0.0000
  73 O_a :3d1-  -0.0000  -0.0000  -0.0527   0.0000   0.0000  -0.0000   0.0140
  74 O_a :3d0    0.0006   0.0017  -0.0000   0.0077  -0.0000  -0.0184  -0.0000
  76 O_a :3d2+   0.0000  -0.0009  -0.0000   0.0127  -0.0000  -0.0410  -0.0000
  78 O_a :3d1-  -0.0000  -0.0000  -0.0173   0.0000   0.0000  -0.0000  -0.1095
  79 O_a :3d0    0.0006   0.0020  -0.0000   0.0096  -0.0000  -0.1137  -0.0000
  81 O_a :3d2+   0.0005  -0.0024  -0.0000   0.0121  -0.0000  -0.2375  -0.0000
 110 O_a :4f3-  -0.0000  -0.0000  -0.0099  -0.0000   0.0000  -0.0000   0.0227
 112 O_a :4f1-   0.0000   0.0000  -0.0005  -0.0000   0.0000   0.0000   0.0245
 117 O_a :4f3-   0.0000   0.0000   0.0014  -0.0000  -0.0000   0.0000   0.0104
 119 O_a :4f1-   0.0000   0.0000   0.0096  -0.0000  -0.0000   0.0000   0.0115
 160 H_a :1s    -0.0004  -0.3933  -0.6186   0.3696  -0.0000   0.0018  -0.0009
 161 H_a :1s    -0.0006   0.0249   0.0263  -0.0134  -0.0000  -0.0039  -0.0002
 162 H_a :1s    -0.0003   0.1537   0.1256  -0.0017   0.0000  -0.0225   0.0134
 163 H_a :1s     0.0011   0.1413   0.2728  -0.0624   0.0000   0.0291  -0.1719
 164 H_a :1s     0.0098   0.0983  -0.0038   0.0629   0.0000   1.7860   0.0797
 165 H_a :1s    -0.0000  -0.0020  -0.0078   0.0025  -0.0000  -1.2367  -0.0653
 166 H_a :1s    -0.0000   0.0000   0.0002  -0.0000  -0.0000   0.6798  12.1694
 170 H_a :2px   -0.0000  -0.0000  -0.0000  -0.0000   0.0130  -0.0000  -0.0000
 171 H_a :2py    0.0004   0.0088   0.0078  -0.0102   0.0000   0.0013   0.0005
 172 H_a :2pz   -0.0004  -0.0061  -0.0110  -0.0011  -0.0000  -0.0010   0.0010
 173 H_a :2px   -0.0000  -0.0000  -0.0000  -0.0000   0.0226  -0.0000  -0.0000
 174 H_a :2py    0.0006   0.0078   0.0138  -0.0331  -0.0000  -0.0068   0.0155
 175 H_a :2pz   -0.0009  -0.0048  -0.0220   0.0115  -0.0000   0.0049   0.0148
 177 H_a :2py    0.0005  -0.0025  -0.0836  -0.0002   0.0000  -0.0758   0.2504
 178 H_a :2pz    0.0002   0.0060   0.0039   0.0072  -0.0000   0.0469   0.0529
 179 H_a :2px   -0.0000  -0.0000  -0.0000  -0.0000  -0.0170  -0.0000  -0.0000
 180 H_a :2py   -0.0002  -0.0124  -0.0030   0.0005  -0.0000  -0.5483   0.3352
 181 H_a :2pz    0.0016   0.0155   0.0149   0.0227  -0.0000   0.3950   0.2054
 183 H_a :2py   -0.0000   0.0007   0.0012  -0.0031   0.0000   0.0516   0.8888
 184 H_a :2pz   -0.0001  -0.0004  -0.0022   0.0023  -0.0000   0.1116   0.4331
 201 H_a :3d1-   0.0003   0.0031   0.0201  -0.0039  -0.0000  -0.0257   0.0295
 202 H_a :3d0   -0.0001   0.0005   0.0005  -0.0002  -0.0000   0.0121   0.0330
 204 H_a :3d2+   0.0002   0.0008  -0.0094  -0.0069   0.0000  -0.0185   0.0303
 206 H_a :3d1-   0.0002   0.0004   0.0055   0.0020  -0.0000  -0.0839   0.0753
 207 H_a :3d0   -0.0002  -0.0002   0.0035  -0.0018   0.0000   0.0769   0.1251
 209 H_a :3d2+  -0.0001   0.0009  -0.0024  -0.0045   0.0000   0.0550   0.0774
 233 H_a :4f1-   0.0001   0.0002   0.0012   0.0003  -0.0000  -0.0187  -0.0042
 234 H_a :4f0   -0.0000   0.0002   0.0011  -0.0001  -0.0000   0.0133   0.0113
 236 H_a :4f2+   0.0000   0.0007   0.0013  -0.0001   0.0000   0.0144   0.0080
 238 H_b :1s    -0.0004  -0.3933   0.6186   0.3696  -0.0000   0.0018   0.0009
 239 H_b :1s    -0.0006   0.0249  -0.0263  -0.0134   0.0000  -0.0039   0.0002
 240 H_b :1s    -0.0003   0.1537  -0.1256  -0.0017   0.0000  -0.0225  -0.0134
 241 H_b :1s     0.0011   0.1413  -0.2728  -0.0624   0.0000   0.0291   0.1719
 242 H_b :1s     0.0098   0.0983   0.0038   0.0629   0.0000   1.7860  -0.0797
 243 H_b :1s    -0.0000  -0.0020   0.0078   0.0025  -0.0000  -1.2367   0.0653
 244 H_b :1s    -0.0000   0.0000  -0.0002  -0.0000   0.0000   0.6798 -12.1694
 248 H_b :2px   -0.0000  -0.0000  -0.0000  -0.0000   0.0130  -0.0000  -0.0000
 249 H_b :2py   -0.0004  -0.0088   0.0078   0.0102  -0.0000  -0.0013   0.0005
 250 H_b :2pz   -0.0004  -0.0061   0.0110  -0.0011  -0.0000  -0.0010  -0.0010
 251 H_b :2px   -0.0000  -0.0000  -0.0000  -0.0000   0.0226  -0.0000  -0.0000
 252 H_b :2py   -0.0006  -0.0078   0.0138   0.0331   0.0000   0.0068   0.0155
 253 H_b :2pz   -0.0009  -0.0048   0.0220   0.0115  -0.0000   0.0049  -0.0148
 255 H_b :2py   -0.0005   0.0025  -0.0836   0.0002   0.0000   0.0758   0.2504
 256 H_b :2pz    0.0002   0.0060  -0.0039   0.0072  -0.0000   0.0469  -0.0529
 257 H_b :2px   -0.0000  -0.0000  -0.0000  -0.0000  -0.0170  -0.0000  -0.0000
 258 H_b :2py    0.0002   0.0124  -0.0030  -0.0005   0.0000   0.5483   0.3352
 259 H_b :2pz    0.0016   0.0155  -0.0149   0.0227  -0.0000   0.3950  -0.2054
 261 H_b :2py    0.0000  -0.0007   0.0012   0.0031  -0.0000  -0.0516   0.8888
 262 H_b :2pz   -0.0001  -0.0004   0.0022   0.0023  -0.0000   0.1116  -0.4331
 279 H_b :3d1-  -0.0003  -0.0031   0.0201   0.0039  -0.0000   0.0257   0.0295
 280 H_b :3d0   -0.0001   0.0005  -0.0005  -0.0002   0.0000   0.0121  -0.0330
 282 H_b :3d2+   0.0002   0.0008   0.0094  -0.0069  -0.0000  -0.0185  -0.0303
 284 H_b :3d1-  -0.0002  -0.0004   0.0055  -0.0020   0.0000   0.0839   0.0753
 285 H_b :3d0   -0.0002  -0.0002  -0.0035  -0.0018   0.0000   0.0769  -0.1251
 287 H_b :3d2+  -0.0001   0.0009   0.0024  -0.0045   0.0000   0.0550  -0.0774
 311 H_b :4f1-  -0.0001  -0.0002   0.0012  -0.0003   0.0000   0.0187  -0.0042
 312 H_b :4f0   -0.0000   0.0002  -0.0011  -0.0001   0.0000   0.0133  -0.0113
 314 H_b :4f2+   0.0000   0.0007  -0.0013  -0.0001   0.0000   0.0144  -0.0080

    Orbital         8        9       10       11       12       13       14
   2 O_a :1s    -0.0251  -0.0000   0.0273  -0.0000  -0.0000   0.0030   0.0000
   4 O_a :1s     0.0110   0.0000  -0.0298  -0.0000  -0.0000   0.0034   0.0000
   5 O_a :1s     0.0803   0.0000  -0.0805   0.0000   0.0000  -0.2395   0.0000
   9 O_a :1s     0.4057   0.0000  -0.6561   0.0000   0.0000  -1.0576   0.0000
  10 O_a :1s     8.6848   0.0000  -8.4259   0.0000   0.0000   3.1975   0.0000
  11 O_a :1s    -8.4169  -0.0000   5.5052  -0.0000  -0.0000   9.1863  -0.0000
  13 O_a :2py   -0.0000  -0.0000   0.0000  -0.0135  -0.0056   0.0000  -0.0000
  14 O_a :2pz    0.0262  -0.0000  -0.0185  -0.0000  -0.0000  -0.0017   0.0000
  18 O_a :2px    0.0000   0.0112  -0.0000   0.0000   0.0000   0.0000   0.0000
  19 O_a :2py    0.0000  -0.0000  -0.0000   0.0003   0.0145  -0.0000   0.0000
  21 O_a :2px    0.0000   0.1168  -0.0000   0.0000   0.0000   0.0000   0.0000
  22 O_a :2py    0.0000  -0.0000   0.0000   0.0785  -0.0630  -0.0000   0.0000
  23 O_a :2pz   -0.0468  -0.0000  -0.1520   0.0000   0.0000   0.0647  -0.0000
  33 O_a :2px    0.0000   0.5117  -0.0000   0.0000   0.0000   0.0000   0.0000
  34 O_a :2py   -0.0000   0.0000  -0.0000   1.3095  -0.1860  -0.0000   0.0000
  35 O_a :2pz   -0.1891  -0.0000  -0.5781   0.0000   0.0000   0.0544  -0.0000
  36 O_a :2px    0.0000   1.7152  -0.0000   0.0000   0.0000   0.0000  -0.0000
  37 O_a :2py   -0.0000  -0.0000   0.0000   2.8888  -0.7787  -0.0000   0.0000
  38 O_a :2pz   -0.7216  -0.0000  -1.7643  -0.0000  -0.0000  -0.9467  -0.0000
  39 O_a :2px    0.0000   3.4753  -0.0000   0.0000   0.0000   0.0000  -0.0000
  40 O_a :2py   -0.0000  -0.0000   0.0000   5.6419  -2.2496  -0.0000   0.0000
  41 O_a :2pz   -1.8925  -0.0000  -3.0297  -0.0000  -0.0000  -1.0443   0.0000
  64 O_a :3d0    0.0052   0.0000   0.0046  -0.0000  -0.0000   0.0163   0.0000
  66 O_a :3d2+   0.0053   0.0000  -0.0063   0.0000  -0.0000   0.0211  -0.0000
  67 O_a :3d2-  -0.0000  -0.0000  -0.0000   0.0000   0.0000   0.0000  -0.0607
  68 O_a :3d1-  -0.0000   0.0000  -0.0000   0.0185  -0.0641  -0.0000  -0.0000
  69 O_a :3d0   -0.0063   0.0000  -0.0077  -0.0000  -0.0000  -0.0114   0.0000
  70 O_a :3d1+  -0.0000   0.0161   0.0000  -0.0000  -0.0000  -0.0000  -0.0000
  71 O_a :3d2+   0.0456   0.0000  -0.0441  -0.0000  -0.0000   0.0083  -0.0000
  72 O_a :3d2-   0.0000  -0.0000  -0.0000   0.0000   0.0000   0.0000  -0.8305
  73 O_a :3d1-  -0.0000  -0.0000   0.0000  -0.1974  -1.0347  -0.0000  -0.0000
  74 O_a :3d0   -0.1402   0.0000  -0.1351  -0.0000  -0.0000  -0.4973   0.0000
  75 O_a :3d1+  -0.0000   0.2186   0.0000  -0.0000  -0.0000  -0.0000  -0.0000
  76 O_a :3d2+   0.1847   0.0000  -0.0858  -0.0000  -0.0000  -0.4120  -0.0000
  77 O_a :3d2-  -0.0000  -0.0000  -0.0000   0.0000   0.0000   0.0000  -6.3538
  78 O_a :3d1-  -0.0000  -0.0000  -0.0000  -0.3760  -4.8557  -0.0000  -0.0000
  79 O_a :3d0   -0.0850   0.0000  -0.4404  -0.0000  -0.0000  -2.2131   0.0000
  80 O_a :3d1+  -0.0000   0.5190   0.0000  -0.0000  -0.0000  -0.0000   0.0000
  81 O_a :3d2+   1.0185   0.0000  -0.4515  -0.0000  -0.0000  -3.2482   0.0000
 103 O_a :4f3-   0.0000   0.0000  -0.0000  -0.0129   0.0119  -0.0000  -0.0000
 105 O_a :4f1-  -0.0000  -0.0000  -0.0000  -0.0215   0.0117   0.0000   0.0000
 106 O_a :4f0    0.0009  -0.0000   0.0123  -0.0000  -0.0000  -0.0047   0.0000
 108 O_a :4f2+  -0.0043  -0.0000   0.0140  -0.0000   0.0000  -0.0055   0.0000
 110 O_a :4f3-   0.0000  -0.0000   0.0000  -0.0671  -0.0092   0.0000   0.0000
 111 O_a :4f2-   0.0000  -0.0000   0.0000  -0.0000  -0.0000  -0.0000   0.0389
 112 O_a :4f1-   0.0000  -0.0000   0.0000  -0.0668   0.0303   0.0000   0.0000
 113 O_a :4f0    0.0076   0.0000   0.0328   0.0000   0.0000   0.0016   0.0000
 114 O_a :4f1+  -0.0000  -0.0192   0.0000  -0.0000  -0.0000  -0.0000   0.0000
 115 O_a :4f2+  -0.0148  -0.0000   0.0310   0.0000   0.0000   0.0022   0.0000
 117 O_a :4f3-   0.0000   0.0000  -0.0000  -0.0166   0.1001   0.0000   0.0000
 118 O_a :4f2-  -0.0000   0.0000   0.0000  -0.0000  -0.0000   0.0000   0.0832
 119 O_a :4f1-   0.0000   0.0000  -0.0000  -0.0018   0.2164   0.0000   0.0000
 120 O_a :4f0    0.0464  -0.0000   0.0457   0.0000   0.0000   0.1189   0.0000
 121 O_a :4f1+   0.0000  -0.0532  -0.0000   0.0000   0.0000   0.0000   0.0000
 122 O_a :4f2+   0.0029  -0.0000   0.0208   0.0000   0.0000   0.0841   0.0000
 123 O_a :4f3+   0.0000  -0.0297  -0.0000   0.0000   0.0000   0.0000   0.0000
 145 O_a :5g1-  -0.0000   0.0000   0.0000   0.0109  -0.0016  -0.0000  -0.0000
 152 O_a :5g3-   0.0000   0.0000   0.0000   0.0123   0.0090  -0.0000  -0.0000
 154 O_a :5g1-   0.0000   0.0000  -0.0000   0.0162   0.0069  -0.0000  -0.0000
 161 H_a :1s     0.0018   0.0000  -0.0123   0.0015   0.0054   0.0061  -0.0000
 162 H_a :1s     0.0102  -0.0000  -0.1122  -0.0413  -0.0550   0.1485  -0.0000
 163 H_a :1s    -0.0407  -0.0000  -0.0059   0.4862  -0.2073   0.6120  -0.0000
 164 H_a :1s    -3.8653  -0.0000   3.4988  -0.2525  -0.1626  -1.6232   0.0000
 165 H_a :1s     4.2930   0.0000  -3.0343   0.0486   0.4361  -3.8533   0.0000
 166 H_a :1s    -0.6405   0.0000   0.5173 -10.9475   1.6226   0.0030  -0.0000
 173 H_a :2px   -0.0000  -0.0201   0.0000  -0.0000  -0.0000  -0.0000  -0.0008
 174 H_a :2py    0.0235   0.0000  -0.0166  -0.0382   0.0395  -0.0297  -0.0000
 175 H_a :2pz   -0.0062   0.0000   0.0210  -0.0432   0.0018   0.0290   0.0000
 176 H_a :2px   -0.0000  -0.1183   0.0000  -0.0000  -0.0000  -0.0000   0.0487
 177 H_a :2py    0.1599  -0.0000  -0.2315  -0.7432  -0.0689  -0.0022  -0.0000
 178 H_a :2pz   -0.0243   0.0000   0.2027  -0.1689  -0.0517  -0.0302   0.0000
 179 H_a :2px   -0.0000  -0.5102   0.0000  -0.0000  -0.0000  -0.0000   3.0298
 180 H_a :2py    1.3291   0.0000  -1.4098  -1.0657  -0.5724  -0.2463   0.0000
 181 H_a :2pz   -0.5035   0.0000   1.2384  -0.4716   1.2915  -0.5770   0.0000
 182 H_a :2px   -0.0000  -1.7145   0.0000  -0.0000  -0.0000  -0.0000  -8.3110
 183 H_a :2py   -0.8994  -0.0000  -0.5542  -2.6140   1.5151   6.8435  -0.0000
 184 H_a :2pz    1.1766   0.0000   1.4061  -2.7586  -6.8207   0.4964  -0.0000
 195 H_a :3d2-   0.0000   0.0103  -0.0000   0.0000   0.0000   0.0000   0.0410
 196 H_a :3d1-   0.0086  -0.0000  -0.0180  -0.0196   0.0516  -0.0129  -0.0000
 197 H_a :3d0    0.0200   0.0000   0.0216  -0.0083   0.0214   0.0260  -0.0000
 198 H_a :3d1+  -0.0000  -0.0312   0.0000  -0.0000  -0.0000  -0.0000   0.0053
 199 H_a :3d2+   0.0025  -0.0000  -0.0224   0.0083   0.0113   0.0353  -0.0000
 200 H_a :3d2-   0.0000   0.0154  -0.0000   0.0000   0.0000   0.0000   0.4199
 201 H_a :3d1-   0.0362   0.0000  -0.0881   0.0099   0.6362  -0.0905   0.0000
 202 H_a :3d0    0.1429   0.0000   0.1162  -0.0668   0.2204   0.3271   0.0000
 203 H_a :3d1+  -0.0000  -0.1891   0.0000  -0.0000  -0.0000  -0.0000   0.1913
 204 H_a :3d2+  -0.0134  -0.0000  -0.0663  -0.1124  -0.1240   0.3587  -0.0000
 205 H_a :3d2-   0.0000   0.2077  -0.0000   0.0000   0.0000   0.0000   3.1027
 206 H_a :3d1-   0.0350   0.0000  -0.3324   0.1476   2.5912  -1.2027   0.0000
 207 H_a :3d0    0.1513  -0.0000   0.3350  -0.1338   1.8400   1.2842  -0.0000
 208 H_a :3d1+   0.0000  -0.4318  -0.0000   0.0000   0.0000   0.0000   1.8810
 209 H_a :3d2+  -0.4119  -0.0000   0.0191  -0.2539   0.1292   1.9253  -0.0000
 224 H_a :4f3-  -0.0005   0.0000   0.0008  -0.0131   0.0031  -0.0411   0.0000
 225 H_a :4f2-   0.0000   0.0110  -0.0000   0.0000   0.0000   0.0000  -0.0044
 226 H_a :4f1-  -0.0094  -0.0000  -0.0080  -0.0084   0.0058  -0.0370   0.0000
 227 H_a :4f0    0.0122   0.0000   0.0068   0.0065   0.0426   0.0113   0.0000
 228 H_a :4f1+   0.0000  -0.0170  -0.0000   0.0000   0.0000   0.0000   0.0096
 229 H_a :4f2+  -0.0046   0.0000  -0.0083   0.0061   0.0455  -0.0086   0.0000
 230 H_a :4f3+   0.0000   0.0003  -0.0000   0.0000   0.0000   0.0000   0.0468
 231 H_a :4f3-   0.0455   0.0000  -0.0017   0.0242  -0.0441  -0.1970   0.0000
 232 H_a :4f2-   0.0000   0.0468  -0.0000   0.0000   0.0000   0.0000   0.1836
 233 H_a :4f1-   0.0156   0.0000  -0.0602   0.0337   0.1199  -0.2498   0.0000
 234 H_a :4f0    0.0042   0.0000   0.0443   0.0154   0.3306   0.0664   0.0000
 235 H_a :4f1+   0.0000  -0.0554  -0.0000   0.0000   0.0000   0.0000   0.2635
 236 H_a :4f2+  -0.0857  -0.0000   0.0074   0.0073   0.2080   0.0383   0.0000
 237 H_a :4f3+  -0.0000   0.0269   0.0000  -0.0000  -0.0000  -0.0000   0.3118
 239 H_b :1s     0.0018  -0.0000  -0.0123  -0.0015  -0.0054   0.0061  -0.0000
 240 H_b :1s     0.0102  -0.0000  -0.1122   0.0413   0.0550   0.1485  -0.0000
 241 H_b :1s    -0.0407  -0.0000  -0.0059  -0.4862   0.2073   0.6120  -0.0000
 242 H_b :1s    -3.8653  -0.0000   3.4988   0.2525   0.1626  -1.6232   0.0000
 243 H_b :1s     4.2930   0.0000  -3.0343  -0.0486  -0.4361  -3.8533   0.0000
 244 H_b :1s    -0.6405  -0.0000   0.5173  10.9475  -1.6226   0.0030  -0.0000
 251 H_b :2px   -0.0000  -0.0201   0.0000  -0.0000  -0.0000  -0.0000   0.0008
 252 H_b :2py   -0.0235  -0.0000   0.0166  -0.0382   0.0395   0.0297   0.0000
 253 H_b :2pz   -0.0062   0.0000   0.0210   0.0432  -0.0018   0.0290   0.0000
 254 H_b :2px   -0.0000  -0.1183   0.0000  -0.0000  -0.0000  -0.0000  -0.0487
 255 H_b :2py   -0.1599  -0.0000   0.2315  -0.7432  -0.0689   0.0022   0.0000
 256 H_b :2pz   -0.0243   0.0000   0.2027   0.1689   0.0517  -0.0302   0.0000
 257 H_b :2px   -0.0000  -0.5102   0.0000  -0.0000  -0.0000  -0.0000  -3.0298
 258 H_b :2py   -1.3291  -0.0000   1.4098  -1.0657  -0.5724   0.2463  -0.0000
 259 H_b :2pz   -0.5035   0.0000   1.2384   0.4716  -1.2915  -0.5770   0.0000
 260 H_b :2px   -0.0000  -1.7145   0.0000  -0.0000  -0.0000  -0.0000   8.3110
 261 H_b :2py    0.8994   0.0000   0.5542  -2.6140   1.5151  -6.8435   0.0000
 262 H_b :2pz    1.1766   0.0000   1.4061   2.7586   6.8207   0.4964   0.0000
 273 H_b :3d2-  -0.0000  -0.0103   0.0000  -0.0000  -0.0000  -0.0000   0.0410
 274 H_b :3d1-  -0.0086   0.0000   0.0180  -0.0196   0.0516   0.0129   0.0000
 275 H_b :3d0    0.0200   0.0000   0.0216   0.0083  -0.0214   0.0260   0.0000
 276 H_b :3d1+  -0.0000  -0.0312   0.0000  -0.0000  -0.0000  -0.0000  -0.0053
 277 H_b :3d2+   0.0025  -0.0000  -0.0224  -0.0083  -0.0113   0.0353   0.0000
 278 H_b :3d2-  -0.0000  -0.0154   0.0000  -0.0000  -0.0000  -0.0000   0.4199
 279 H_b :3d1-  -0.0362   0.0000   0.0881   0.0099   0.6362   0.0905   0.0000
 280 H_b :3d0    0.1429  -0.0000   0.1162   0.0668  -0.2204   0.3271   0.0000
 281 H_b :3d1+  -0.0000  -0.1891   0.0000  -0.0000  -0.0000  -0.0000  -0.1913
 282 H_b :3d2+  -0.0134   0.0000  -0.0663   0.1124   0.1240   0.3587   0.0000
 283 H_b :3d2-  -0.0000  -0.2077   0.0000  -0.0000  -0.0000  -0.0000   3.1027
 284 H_b :3d1-  -0.0350  -0.0000   0.3324   0.1476   2.5912   1.2027  -0.0000
 285 H_b :3d0    0.1513  -0.0000   0.3350   0.1338  -1.8400   1.2842  -0.0000
 286 H_b :3d1+   0.0000  -0.4318  -0.0000   0.0000   0.0000   0.0000  -1.8810
 287 H_b :3d2+  -0.4119  -0.0000   0.0191   0.2539  -0.1292   1.9253  -0.0000
 302 H_b :4f3-   0.0005  -0.0000  -0.0008  -0.0131   0.0031   0.0411   0.0000
 303 H_b :4f2-  -0.0000  -0.0110   0.0000  -0.0000  -0.0000  -0.0000  -0.0044
 304 H_b :4f1-   0.0094  -0.0000   0.0080  -0.0084   0.0058   0.0370   0.0000
 305 H_b :4f0    0.0122  -0.0000   0.0068  -0.0065  -0.0426   0.0113   0.0000
 306 H_b :4f1+   0.0000  -0.0170  -0.0000   0.0000   0.0000   0.0000  -0.0096
 307 H_b :4f2+  -0.0046   0.0000  -0.0083  -0.0061  -0.0455  -0.0086   0.0000
 308 H_b :4f3+   0.0000   0.0003  -0.0000   0.0000   0.0000   0.0000  -0.0468
 309 H_b :4f3-  -0.0455  -0.0000   0.0017   0.0242  -0.0441   0.1970  -0.0000
 310 H_b :4f2-  -0.0000  -0.0468   0.0000  -0.0000  -0.0000  -0.0000   0.1836
 311 H_b :4f1-  -0.0156  -0.0000   0.0602   0.0337   0.1199   0.2498  -0.0000
 312 H_b :4f0    0.0042  -0.0000   0.0443  -0.0154  -0.3306   0.0664  -0.0000
 313 H_b :4f1+   0.0000  -0.0554  -0.0000   0.0000   0.0000   0.0000  -0.2635
 314 H_b :4f2+  -0.0857  -0.0000   0.0074  -0.0073  -0.2080   0.0383  -0.0000
 315 H_b :4f3+  -0.0000   0.0269   0.0000  -0.0000  -0.0000  -0.0000  -0.3118

    Orbital        15
   2 O_a :1s    -0.0170
   5 O_a :1s    -0.4190
   9 O_a :1s    -1.5582
  10 O_a :1s   -32.8990
  11 O_a :1s    15.0831
  14 O_a :2pz    0.0395
  20 O_a :2pz    0.0431
  23 O_a :2pz    0.3914
  35 O_a :2pz    1.2755
  38 O_a :2pz    3.9750
  41 O_a :2pz    3.8211
  64 O_a :3d0   -0.0205
  69 O_a :3d0   -0.0596
  71 O_a :3d2+   0.0355
  74 O_a :3d0    0.1257
  76 O_a :3d2+  -0.0540
  79 O_a :3d0   -0.3103
  81 O_a :3d2+  -1.2160
 115 O_a :4f2+  -0.0145
 120 O_a :4f0   -0.0743
 122 O_a :4f2+  -0.0323
 162 H_a :1s     0.2374
 163 H_a :1s     0.6626
 164 H_a :1s    15.9477
 165 H_a :1s    -6.7512
 166 H_a :1s     0.3382
 174 H_a :2py   -0.0761
 175 H_a :2pz    0.0115
 177 H_a :2py   -0.1791
 178 H_a :2pz   -0.1410
 180 H_a :2py   -2.6717
 181 H_a :2pz    1.2831
 183 H_a :2py    2.5465
 184 H_a :2pz   -3.5431
 196 H_a :3d1-   0.0102
 197 H_a :3d0   -0.0317
 199 H_a :3d2+  -0.0164
 201 H_a :3d1-   0.0190
 202 H_a :3d0   -0.2091
 204 H_a :3d2+  -0.0473
 206 H_a :3d1-   0.0790
 207 H_a :3d0    0.0550
 209 H_a :3d2+   0.5635
 226 H_a :4f1-   0.0216
 227 H_a :4f0   -0.0171
 231 H_a :4f3-  -0.0446
 233 H_a :4f1-  -0.0512
 234 H_a :4f0    0.0580
 236 H_a :4f2+   0.1532
 240 H_b :1s     0.2374
 241 H_b :1s     0.6626
 242 H_b :1s    15.9477
 243 H_b :1s    -6.7512
 244 H_b :1s     0.3382
 252 H_b :2py    0.0761
 253 H_b :2pz    0.0115
 255 H_b :2py    0.1791
 256 H_b :2pz   -0.1410
 258 H_b :2py    2.6717
 259 H_b :2pz    1.2831
 261 H_b :2py   -2.5465
 262 H_b :2pz   -3.5431
 274 H_b :3d1-  -0.0102
 275 H_b :3d0   -0.0317
 277 H_b :3d2+  -0.0164
 279 H_b :3d1-  -0.0190
 280 H_b :3d0   -0.2091
 282 H_b :3d2+  -0.0473
 284 H_b :3d1-  -0.0790
 285 H_b :3d0    0.0550
 287 H_b :3d2+   0.5635
 304 H_b :4f1-  -0.0216
 305 H_b :4f0   -0.0171
 309 H_b :4f3-   0.0446
 311 H_b :4f1-   0.0512
 312 H_b :4f0    0.0580
 314 H_b :4f2+   0.1532

  Total CPU  time used in SIRIUS :  33.98 seconds
  Total wall time used in SIRIUS :  34.08 seconds

 
     Date and time (Linux)  : Mon Jul 22 11:08:47 2024
     Host name              : sn-mem                                  

 NOTE:    1 warnings have been issued.
 Check output, result, and error files for "WARNING".


                     .---------------------------------------.
                     | End of Wave Function Section (SIRIUS) |
                     `---------------------------------------'



                 .------------------------------------------------.
                 | Starting in Dynamic Property Section (RESPONS) |
                 `------------------------------------------------'


 ----------------------------------------------------------------------------------------
  RESPONSE  -  an MCSCF, MC-srDFT, DFT, SOPPA and SOPPA-srDFT response property program
 ----------------------------------------------------------------------------------------


 -------- OUTPUT FROM RESPONSE INPUT PROCESSING --------




 Quadratic Response calculation
 ------------------------------

 First hyperpolarizability calculation : HYPCAL= T

 Spin of operator A , ISPINA=    0
 Spin of operator B , ISPINB=    0
 Spin of operator C , ISPINC=    0

  5 B-frequencies  0.000000D+00  1.986669D-02  3.973338D-02  5.960006D-02  7.946675D-02
  5 C-frequencies  0.000000D+00  1.986669D-02  3.973338D-02  5.960006D-02  7.946675D-02


 Print level                                    : IPRHYP =   2
 Maximum number of iterations in lin.rsp. solver: MAXITL =  60
 Threshold for convergence of linear resp. eq.s : THCLR  = 1.000D-03
 Maximum iterations in optimal orbital algorithm: MAXITO =   5
 Direct one-index transformation                : DIROIT = T

    3 A OPERATORS OF SYMMETRY NO:    1 AND LABELS:

          XDIPLEN 
          YDIPLEN 
          ZDIPLEN 

    3 B OPERATORS OF SYMMETRY NO:    1 AND LABELS:

          XDIPLEN 
          YDIPLEN 
          ZDIPLEN 

    3 C OPERATORS OF SYMMETRY NO:    1 AND LABELS:

          XDIPLEN 
          YDIPLEN 
          ZDIPLEN 


   SCF energy         :      -76.066076405759233
 -- inactive part     :      -85.255610183346079
 -- nuclear repulsion :        9.189533777586849


                     ***************************************
                     *** RHF response calculation (TDHF) ***
                     ***************************************



 Linear response calculations for quadratic response
 - singlet property operator of symmetry    1  ( A  )


 Perturbation symmetry.     KSYMOP:           1
 Perturbation spin symmetry.TRPLET:           F
 Orbital variables.         KZWOPT:        1540
 Configuration variables.   KZCONF:           0
 Total number of variables. KZVAR :        1540


 QRLRVE -- linear response calculation for symmetry  1  ( A  )
 QRLRVE -- operator label : XDIPLEN 
 QRLRVE -- operator spin  :   0
 QRLRVE -- frequencies :  0.000000  0.019867  0.039733  0.059600  0.079467
                          0.099333  0.119200  0.139067  0.158934



 ---  SOLVING SETS OF LINEAR EQUATIONS FOR LINEAR RESPONSE PROPERTIES ---

 Operator symmetry = 1  ( A  ); triplet =   F


 ** RSPCTL MICROITERATION NUMBER    1

       No.  Residual tot.,    conf., and orb.    Bnorm      Frequency 
      ----------------------------------------------------------------
         1    7.02943D-01  0.00D+00  7.03D-01  2.36D+00    0.00000D+00
         2    7.03763D-01  0.00D+00  7.04D-01  2.36D+00    1.98667D-02
         3    7.06255D-01  0.00D+00  7.06D-01  2.38D+00    3.97334D-02
         4    7.10508D-01  0.00D+00  7.11D-01  2.41D+00    5.96001D-02
         5    7.16683D-01  0.00D+00  7.17D-01  2.46D+00    7.94668D-02
         6    7.25029D-01  0.00D+00  7.25D-01  2.53D+00    9.93334D-02
         7    7.35912D-01  0.00D+00  7.36D-01  2.61D+00    1.19200D-01
         8    7.49866D-01  0.00D+00  7.50D-01  2.71D+00    1.39067D-01
         9    7.67670D-01  0.00D+00  7.68D-01  2.84D+00    1.58934D-01

 ** RSPCTL MICROITERATION NUMBER    2

       No.  Residual tot.,    conf., and orb.    Bnorm      Frequency 
      ----------------------------------------------------------------
         1    8.07798D-02  0.00D+00  8.08D-02  2.45D+00    0.00000D+00
         2    8.11880D-02  0.00D+00  8.12D-02  2.46D+00    1.98667D-02
         3    8.24399D-02  0.00D+00  8.24D-02  2.49D+00    3.97334D-02
         4    8.46217D-02  0.00D+00  8.46D-02  2.53D+00    5.96001D-02
         5    8.78896D-02  0.00D+00  8.79D-02  2.58D+00    7.94668D-02
         6    9.24926D-02  0.00D+00  9.25D-02  2.66D+00    9.93334D-02
         7    9.88111D-02  0.00D+00  9.88D-02  2.77D+00    1.19200D-01
         8    1.07425D-01  0.00D+00  1.07D-01  2.91D+00    1.39067D-01
         9    1.19233D-01  0.00D+00  1.19D-01  3.09D+00    1.58934D-01

 ** RSPCTL MICROITERATION NUMBER    3

       No.  Residual tot.,    conf., and orb.    Bnorm      Frequency 
      ----------------------------------------------------------------
         1    5.26152D-03  0.00D+00  5.26D-03  2.46D+00    0.00000D+00
         2    5.40040D-03  0.00D+00  5.40D-03  2.46D+00    1.98667D-02
         3    5.81143D-03  0.00D+00  5.81D-03  2.49D+00    3.97334D-02
         4    6.48420D-03  0.00D+00  6.48D-03  2.53D+00    5.96001D-02
         5    7.41686D-03  0.00D+00  7.42D-03  2.59D+00    7.94668D-02
         6    8.62844D-03  0.00D+00  8.63D-03  2.67D+00    9.93334D-02
         7    1.01692D-02  0.00D+00  1.02D-02  2.77D+00    1.19200D-01
         8    1.21343D-02  0.00D+00  1.21D-02  2.91D+00    1.39067D-01
         9    1.46883D-02  0.00D+00  1.47D-02  3.10D+00    1.58934D-01

 ** RSPCTL MICROITERATION NUMBER    4

       No.  Residual tot.,    conf., and orb.    Bnorm      Frequency 
      ----------------------------------------------------------------
         1    7.21679D-04  0.00D+00  7.22D-04  2.46D+00    0.00000D+00
         2    7.33814D-04  0.00D+00  7.34D-04  2.46D+00    1.98667D-02
         3    7.71204D-04  0.00D+00  7.71D-04  2.49D+00    3.97334D-02
         4    8.36910D-04  0.00D+00  8.37D-04  2.53D+00    5.96001D-02
         5    9.36425D-04  0.00D+00  9.36D-04  2.59D+00    7.94668D-02
         6    1.07845D-03  0.00D+00  1.08D-03  2.67D+00    9.93334D-02
         7    1.27632D-03  0.00D+00  1.28D-03  2.77D+00    1.19200D-01
         8    1.55072D-03  0.00D+00  1.55D-03  2.91D+00    1.39067D-01
         9    1.93468D-03  0.00D+00  1.93D-03  3.10D+00    1.58934D-01

 *** THE REQUESTED    9 SOLUTION VECTORS CONVERGED

 Convergence of RSP solution vectors, threshold = 1.00D-03
 ---------------------------------------------------------------
 (dimension of paired reduced space:   72)
 RSP solution vector no.    1; norm of residual   2.94D-04
 RSP solution vector no.    2; norm of residual   2.98D-04
 RSP solution vector no.    3; norm of residual   3.10D-04
 RSP solution vector no.    4; norm of residual   3.31D-04
 RSP solution vector no.    5; norm of residual   3.62D-04
 RSP solution vector no.    6; norm of residual   4.04D-04
 RSP solution vector no.    7; norm of residual   4.60D-04
 RSP solution vector no.    8; norm of residual   5.32D-04
 RSP solution vector no.    9; norm of residual   6.24D-04

 *** RSPCTL MICROITERATIONS CONVERGED

@ QRLRVE: SINGLET SOLUTION FOR SYMMETRY    1  ( A  )    LABEL   XDIPLEN     FREQUENCY   0.000000D+00

@ QRLRVE:  << XDIPLEN  ; XDIPLEN  >> (   0.00000):     7.90547676873    

@ QRLRVE:  << YDIPLEN  ; XDIPLEN  >> (   0.00000):   -1.272607789596E-16

@ QRLRVE:  << ZDIPLEN  ; XDIPLEN  >> (   0.00000):    3.678599475960E-16

@ QRLRVE: SINGLET SOLUTION FOR SYMMETRY    1  ( A  )    LABEL   XDIPLEN     FREQUENCY   0.198667D-01

@ QRLRVE:  << XDIPLEN  ; XDIPLEN  >> (   0.01987):     7.91602853744    

@ QRLRVE:  << YDIPLEN  ; XDIPLEN  >> (   0.01987):   -1.277143029020E-16

@ QRLRVE:  << ZDIPLEN  ; XDIPLEN  >> (   0.01987):    3.697192506985E-16

@ QRLRVE: SINGLET SOLUTION FOR SYMMETRY    1  ( A  )    LABEL   XDIPLEN     FREQUENCY   0.397334D-01

@ QRLRVE:  << XDIPLEN  ; XDIPLEN  >> (   0.03973):     7.94801424891    

@ QRLRVE:  << YDIPLEN  ; XDIPLEN  >> (   0.03973):   -1.290952197698E-16

@ QRLRVE:  << ZDIPLEN  ; XDIPLEN  >> (   0.03973):    3.754225664404E-16

@ QRLRVE: SINGLET SOLUTION FOR SYMMETRY    1  ( A  )    LABEL   XDIPLEN     FREQUENCY   0.596001D-01

@ QRLRVE:  << XDIPLEN  ; XDIPLEN  >> (   0.05960):     8.00245951425    

@ QRLRVE:  << YDIPLEN  ; XDIPLEN  >> (   0.05960):   -1.314670072763E-16

@ QRLRVE:  << ZDIPLEN  ; XDIPLEN  >> (   0.05960):    3.853651920338E-16

@ QRLRVE: SINGLET SOLUTION FOR SYMMETRY    1  ( A  )    LABEL   XDIPLEN     FREQUENCY   0.794668D-01

@ QRLRVE:  << XDIPLEN  ; XDIPLEN  >> (   0.07947):     8.08119589178    

@ QRLRVE:  << YDIPLEN  ; XDIPLEN  >> (   0.07947):   -1.349441757017E-16

@ QRLRVE:  << ZDIPLEN  ; XDIPLEN  >> (   0.07947):    4.002746331978E-16

@ QRLRVE: SINGLET SOLUTION FOR SYMMETRY    1  ( A  )    LABEL   XDIPLEN     FREQUENCY   0.993334D-01

@ QRLRVE:  << XDIPLEN  ; XDIPLEN  >> (   0.09933):     8.18707351575    

@ QRLRVE:  << YDIPLEN  ; XDIPLEN  >> (   0.09933):   -1.397075657308E-16

@ QRLRVE:  << ZDIPLEN  ; XDIPLEN  >> (   0.09933):    4.213335524363E-16

@ QRLRVE: SINGLET SOLUTION FOR SYMMETRY    1  ( A  )    LABEL   XDIPLEN     FREQUENCY   0.119200D+00

@ QRLRVE:  << XDIPLEN  ; XDIPLEN  >> (   0.11920):     8.32432945185    

@ QRLRVE:  << YDIPLEN  ; XDIPLEN  >> (   0.11920):   -1.460311614985E-16

@ QRLRVE:  << ZDIPLEN  ; XDIPLEN  >> (   0.11920):    4.504008022958E-16

@ QRLRVE: SINGLET SOLUTION FOR SYMMETRY    1  ( A  )    LABEL   XDIPLEN     FREQUENCY   0.139067D+00

@ QRLRVE:  << XDIPLEN  ; XDIPLEN  >> (   0.13907):     8.49921827929    

@ QRLRVE:  << YDIPLEN  ; XDIPLEN  >> (   0.13907):   -1.543286297176E-16

@ QRLRVE:  << ZDIPLEN  ; XDIPLEN  >> (   0.13907):    4.904066679824E-16

@ QRLRVE: SINGLET SOLUTION FOR SYMMETRY    1  ( A  )    LABEL   XDIPLEN     FREQUENCY   0.158934D+00

@ QRLRVE:  << XDIPLEN  ; XDIPLEN  >> (   0.15893):     8.72112029251    

@ QRLRVE:  << YDIPLEN  ; XDIPLEN  >> (   0.15893):   -1.652363377418E-16

@ QRLRVE:  << ZDIPLEN  ; XDIPLEN  >> (   0.15893):    5.460808483839E-16


 QRLRVE -- linear response calculation for symmetry  1  ( A  )
 QRLRVE -- operator label : YDIPLEN 
 QRLRVE -- operator spin  :   0
 QRLRVE -- frequencies :  0.000000  0.019867  0.039733  0.059600  0.079467
                          0.099333  0.119200  0.139067  0.158934



 ---  SOLVING SETS OF LINEAR EQUATIONS FOR LINEAR RESPONSE PROPERTIES ---

 Operator symmetry = 1  ( A  ); triplet =   F


 ** RSPCTL MICROITERATION NUMBER    1

       No.  Residual tot.,    conf., and orb.    Bnorm      Frequency 
      ----------------------------------------------------------------
         1    8.78070D-01  0.00D+00  8.78D-01  2.35D+00    0.00000D+00
         2    8.78714D-01  0.00D+00  8.79D-01  2.35D+00    1.98667D-02
         3    8.80655D-01  0.00D+00  8.81D-01  2.36D+00    3.97334D-02
         4    8.83919D-01  0.00D+00  8.84D-01  2.38D+00    5.96001D-02
         5    8.88549D-01  0.00D+00  8.89D-01  2.41D+00    7.94668D-02
         6    8.94608D-01  0.00D+00  8.95D-01  2.45D+00    9.93334D-02
         7    9.02184D-01  0.00D+00  9.02D-01  2.49D+00    1.19200D-01
         8    9.11387D-01  0.00D+00  9.11D-01  2.55D+00    1.39067D-01
         9    9.22363D-01  0.00D+00  9.22D-01  2.62D+00    1.58934D-01

 ** RSPCTL MICROITERATION NUMBER    2

       No.  Residual tot.,    conf., and orb.    Bnorm      Frequency 
      ----------------------------------------------------------------
         1    9.40288D-02  0.00D+00  9.40D-02  2.43D+00    0.00000D+00
         2    9.42114D-02  0.00D+00  9.42D-02  2.44D+00    1.98667D-02
         3    9.47635D-02  0.00D+00  9.48D-02  2.45D+00    3.97334D-02
         4    9.56993D-02  0.00D+00  9.57D-02  2.47D+00    5.96001D-02
         5    9.70425D-02  0.00D+00  9.70D-02  2.50D+00    7.94668D-02
         6    9.88288D-02  0.00D+00  9.88D-02  2.54D+00    9.93334D-02
         7    1.01107D-01  0.00D+00  1.01D-01  2.59D+00    1.19200D-01
         8    1.03943D-01  0.00D+00  1.04D-01  2.65D+00    1.39067D-01
         9    1.07424D-01  0.00D+00  1.07D-01  2.73D+00    1.58934D-01

 ** RSPCTL MICROITERATION NUMBER    3

       No.  Residual tot.,    conf., and orb.    Bnorm      Frequency 
      ----------------------------------------------------------------
         1    9.73386D-03  0.00D+00  9.73D-03  2.43D+00    0.00000D+00
         2    9.78845D-03  0.00D+00  9.79D-03  2.44D+00    1.98667D-02
         3    9.95305D-03  0.00D+00  9.95D-03  2.45D+00    3.97334D-02
         4    1.02302D-02  0.00D+00  1.02D-02  2.47D+00    5.96001D-02
         5    1.06246D-02  0.00D+00  1.06D-02  2.50D+00    7.94668D-02
         6    1.11432D-02  0.00D+00  1.11D-02  2.54D+00    9.93334D-02
         7    1.17960D-02  0.00D+00  1.18D-02  2.59D+00    1.19200D-01
         8    1.25970D-02  0.00D+00  1.26D-02  2.65D+00    1.39067D-01
         9    1.35651D-02  0.00D+00  1.36D-02  2.73D+00    1.58934D-01

 ** RSPCTL MICROITERATION NUMBER    4

       No.  Residual tot.,    conf., and orb.    Bnorm      Frequency 
      ----------------------------------------------------------------
         1    2.72880D-03  0.00D+00  2.73D-03  2.43D+00    0.00000D+00
         2    2.74411D-03  0.00D+00  2.74D-03  2.44D+00    1.98667D-02
         3    2.79058D-03  0.00D+00  2.79D-03  2.45D+00    3.97334D-02
         4    2.86983D-03  0.00D+00  2.87D-03  2.47D+00    5.96001D-02
         5    2.98472D-03  0.00D+00  2.98D-03  2.50D+00    7.94668D-02
         6    3.13952D-03  0.00D+00  3.14D-03  2.54D+00    9.93334D-02
         7    3.34031D-03  0.00D+00  3.34D-03  2.59D+00    1.19200D-01
         8    3.59546D-03  0.00D+00  3.60D-03  2.65D+00    1.39067D-01
         9    3.91638D-03  0.00D+00  3.92D-03  2.73D+00    1.58934D-01

 ** RSPCTL MICROITERATION NUMBER    5

       No.  Residual tot.,    conf., and orb.    Bnorm      Frequency 
      ----------------------------------------------------------------
         1    3.40675D-04  0.00D+00  3.41D-04  2.43D+00    0.00000D+00
         2    3.42536D-04  0.00D+00  3.43D-04  2.44D+00    1.98667D-02
         3    3.48189D-04  0.00D+00  3.48D-04  2.45D+00    3.97334D-02
         4    3.57856D-04  0.00D+00  3.58D-04  2.47D+00    5.96001D-02
         5    3.71925D-04  0.00D+00  3.72D-04  2.50D+00    7.94668D-02
         6    3.90984D-04  0.00D+00  3.91D-04  2.54D+00    9.93334D-02
         7    4.15872D-04  0.00D+00  4.16D-04  2.59D+00    1.19200D-01
         8    4.47761D-04  0.00D+00  4.48D-04  2.65D+00    1.39067D-01
         9    4.88268D-04  0.00D+00  4.88D-04  2.73D+00    1.58934D-01

 *** THE REQUESTED    9 SOLUTION VECTORS CONVERGED

 Convergence of RSP solution vectors, threshold = 1.00D-03
 ---------------------------------------------------------------
 (dimension of paired reduced space:   90)
 RSP solution vector no.    1; norm of residual   1.40D-04
 RSP solution vector no.    2; norm of residual   1.41D-04
 RSP solution vector no.    3; norm of residual   1.42D-04
 RSP solution vector no.    4; norm of residual   1.45D-04
 RSP solution vector no.    5; norm of residual   1.49D-04
 RSP solution vector no.    6; norm of residual   1.54D-04
 RSP solution vector no.    7; norm of residual   1.60D-04
 RSP solution vector no.    8; norm of residual   1.69D-04
 RSP solution vector no.    9; norm of residual   1.79D-04

 *** RSPCTL MICROITERATIONS CONVERGED

@ QRLRVE: SINGLET SOLUTION FOR SYMMETRY    1  ( A  )    LABEL   YDIPLEN     FREQUENCY   0.000000D+00

@ QRLRVE:  << XDIPLEN  ; YDIPLEN  >> (   0.00000):    9.167524808205E-17

@ QRLRVE:  << YDIPLEN  ; YDIPLEN  >> (   0.00000):     9.19442304642    

@ QRLRVE:  << ZDIPLEN  ; YDIPLEN  >> (   0.00000):   -3.585014616700E-05

@ QRLRVE: SINGLET SOLUTION FOR SYMMETRY    1  ( A  )    LABEL   YDIPLEN     FREQUENCY   0.198667D-01

@ QRLRVE:  << XDIPLEN  ; YDIPLEN  >> (   0.01987):    9.262624557734E-17

@ QRLRVE:  << YDIPLEN  ; YDIPLEN  >> (   0.01987):     9.20277825371    

@ QRLRVE:  << ZDIPLEN  ; YDIPLEN  >> (   0.01987):   -3.618086847171E-05

@ QRLRVE: SINGLET SOLUTION FOR SYMMETRY    1  ( A  )    LABEL   YDIPLEN     FREQUENCY   0.397334D-01

@ QRLRVE:  << XDIPLEN  ; YDIPLEN  >> (   0.03973):    9.551485603971E-17

@ QRLRVE:  << YDIPLEN  ; YDIPLEN  >> (   0.03973):     9.22796292642    

@ QRLRVE:  << ZDIPLEN  ; YDIPLEN  >> (   0.03973):   -3.719388150625E-05

@ QRLRVE: SINGLET SOLUTION FOR SYMMETRY    1  ( A  )    LABEL   YDIPLEN     FREQUENCY   0.596001D-01

@ QRLRVE:  << XDIPLEN  ; YDIPLEN  >> (   0.05960):    1.004506412929E-16

@ QRLRVE:  << YDIPLEN  ; YDIPLEN  >> (   0.05960):     9.27033908046    

@ QRLRVE:  << ZDIPLEN  ; YDIPLEN  >> (   0.05960):   -3.895415246010E-05

@ QRLRVE: SINGLET SOLUTION FOR SYMMETRY    1  ( A  )    LABEL   YDIPLEN     FREQUENCY   0.794668D-01

@ QRLRVE:  << XDIPLEN  ; YDIPLEN  >> (   0.07947):    1.076257108458E-16

@ QRLRVE:  << YDIPLEN  ; YDIPLEN  >> (   0.07947):     9.33052669097    

@ QRLRVE:  << ZDIPLEN  ; YDIPLEN  >> (   0.07947):   -4.157849471985E-05

@ QRLRVE: SINGLET SOLUTION FOR SYMMETRY    1  ( A  )    LABEL   YDIPLEN     FREQUENCY   0.993334D-01

@ QRLRVE:  << XDIPLEN  ; YDIPLEN  >> (   0.09933):    1.173308231238E-16

@ QRLRVE:  << YDIPLEN  ; YDIPLEN  >> (   0.09933):     9.40943008622    

@ QRLRVE:  << ZDIPLEN  ; YDIPLEN  >> (   0.09933):   -4.525001857909E-05

@ QRLRVE: SINGLET SOLUTION FOR SYMMETRY    1  ( A  )    LABEL   YDIPLEN     FREQUENCY   0.119200D+00

@ QRLRVE:  << XDIPLEN  ; YDIPLEN  >> (   0.11920):    1.299822676050E-16

@ QRLRVE:  << YDIPLEN  ; YDIPLEN  >> (   0.11920):     9.50827806059    

@ QRLRVE:  << ZDIPLEN  ; YDIPLEN  >> (   0.11920):   -5.024210767617E-05

@ QRLRVE: SINGLET SOLUTION FOR SYMMETRY    1  ( A  )    LABEL   YDIPLEN     FREQUENCY   0.139067D+00

@ QRLRVE:  << XDIPLEN  ; YDIPLEN  >> (   0.13907):    1.461657346912E-16

@ QRLRVE:  << YDIPLEN  ; YDIPLEN  >> (   0.13907):     9.62868143057    

@ QRLRVE:  << ZDIPLEN  ; YDIPLEN  >> (   0.13907):   -5.695687791078E-05

@ QRLRVE: SINGLET SOLUTION FOR SYMMETRY    1  ( A  )    LABEL   YDIPLEN     FREQUENCY   0.158934D+00

@ QRLRVE:  << XDIPLEN  ; YDIPLEN  >> (   0.15893):    1.667088872547E-16

@ QRLRVE:  << YDIPLEN  ; YDIPLEN  >> (   0.15893):     9.77271377271    

@ QRLRVE:  << ZDIPLEN  ; YDIPLEN  >> (   0.15893):   -6.598672818751E-05


 QRLRVE -- linear response calculation for symmetry  1  ( A  )
 QRLRVE -- operator label : ZDIPLEN 
 QRLRVE -- operator spin  :   0
 QRLRVE -- frequencies :  0.000000  0.019867  0.039733  0.059600  0.079467
                          0.099333  0.119200  0.139067  0.158934



 ---  SOLVING SETS OF LINEAR EQUATIONS FOR LINEAR RESPONSE PROPERTIES ---

 Operator symmetry = 1  ( A  ); triplet =   F


 ** RSPCTL MICROITERATION NUMBER    1

       No.  Residual tot.,    conf., and orb.    Bnorm      Frequency 
      ----------------------------------------------------------------
         1    1.54599D+00  0.00D+00  1.55D+00  2.21D+00    0.00000D+00
         2    1.54748D+00  0.00D+00  1.55D+00  2.22D+00    1.98667D-02
         3    1.55198D+00  0.00D+00  1.55D+00  2.23D+00    3.97334D-02
         4    1.55958D+00  0.00D+00  1.56D+00  2.26D+00    5.96001D-02
         5    1.57041D+00  0.00D+00  1.57D+00  2.29D+00    7.94668D-02
         6    1.58468D+00  0.00D+00  1.58D+00  2.33D+00    9.93334D-02
         7    1.60269D+00  0.00D+00  1.60D+00  2.39D+00    1.19200D-01
         8    1.62482D+00  0.00D+00  1.62D+00  2.45D+00    1.39067D-01
         9    1.65158D+00  0.00D+00  1.65D+00  2.54D+00    1.58934D-01

 ** RSPCTL MICROITERATION NUMBER    2

       No.  Residual tot.,    conf., and orb.    Bnorm      Frequency 
      ----------------------------------------------------------------
         1    4.09428D-01  0.00D+00  4.09D-01  2.40D+00    0.00000D+00
         2    4.10159D-01  0.00D+00  4.10D-01  2.41D+00    1.98667D-02
         3    4.12370D-01  0.00D+00  4.12D-01  2.42D+00    3.97334D-02
         4    4.16119D-01  0.00D+00  4.16D-01  2.45D+00    5.96001D-02
         5    4.21505D-01  0.00D+00  4.22D-01  2.49D+00    7.94668D-02
         6    4.28681D-01  0.00D+00  4.29D-01  2.54D+00    9.93334D-02
         7    4.37858D-01  0.00D+00  4.38D-01  2.61D+00    1.19200D-01
         8    4.49330D-01  0.00D+00  4.49D-01  2.70D+00    1.39067D-01
         9    4.63500D-01  0.00D+00  4.63D-01  2.80D+00    1.58934D-01

 ** RSPCTL MICROITERATION NUMBER    3

       No.  Residual tot.,    conf., and orb.    Bnorm      Frequency 
      ----------------------------------------------------------------
         1    5.50089D-02  0.00D+00  5.50D-02  2.42D+00    0.00000D+00
         2    5.52200D-02  0.00D+00  5.52D-02  2.42D+00    1.98667D-02
         3    5.58609D-02  0.00D+00  5.59D-02  2.44D+00    3.97334D-02
         4    5.69557D-02  0.00D+00  5.70D-02  2.47D+00    5.96001D-02
         5    5.85467D-02  0.00D+00  5.85D-02  2.51D+00    7.94668D-02
         6    6.06980D-02  0.00D+00  6.07D-02  2.56D+00    9.93334D-02
         7    6.35015D-02  0.00D+00  6.35D-02  2.63D+00    1.19200D-01
         8    6.70864D-02  0.00D+00  6.71D-02  2.72D+00    1.39067D-01
         9    7.16334D-02  0.00D+00  7.16D-02  2.83D+00    1.58934D-01

 ** RSPCTL MICROITERATION NUMBER    4

       No.  Residual tot.,    conf., and orb.    Bnorm      Frequency 
      ----------------------------------------------------------------
         1    8.25832D-03  0.00D+00  8.26D-03  2.42D+00    0.00000D+00
         2    8.30770D-03  0.00D+00  8.31D-03  2.42D+00    1.98667D-02
         3    8.45752D-03  0.00D+00  8.46D-03  2.44D+00    3.97334D-02
         4    8.71297D-03  0.00D+00  8.71D-03  2.47D+00    5.96001D-02
         5    9.08314D-03  0.00D+00  9.08D-03  2.51D+00    7.94668D-02
         6    9.58178D-03  0.00D+00  9.58D-03  2.56D+00    9.93334D-02
         7    1.02285D-02  0.00D+00  1.02D-02  2.63D+00    1.19200D-01
         8    1.10506D-02  0.00D+00  1.11D-02  2.72D+00    1.39067D-01
         9    1.20859D-02  0.00D+00  1.21D-02  2.83D+00    1.58934D-01

 ** RSPCTL MICROITERATION NUMBER    5

       No.  Residual tot.,    conf., and orb.    Bnorm      Frequency 
      ----------------------------------------------------------------
         1    1.05080D-03  0.00D+00  1.05D-03  2.42D+00    0.00000D+00
         2    1.06012D-03  0.00D+00  1.06D-03  2.42D+00    1.98667D-02
         3    1.08847D-03  0.00D+00  1.09D-03  2.44D+00    3.97334D-02
         4    1.13701D-03  0.00D+00  1.14D-03  2.47D+00    5.96001D-02
         5    1.20779D-03  0.00D+00  1.21D-03  2.51D+00    7.94668D-02
         6    1.30393D-03  0.00D+00  1.30D-03  2.56D+00    9.93334D-02
         7    1.42992D-03  0.00D+00  1.43D-03  2.63D+00    1.19200D-01
         8    1.59204D-03  0.00D+00  1.59D-03  2.72D+00    1.39067D-01
         9    1.79900D-03  0.00D+00  1.80D-03  2.83D+00    1.58934D-01

 *** THE REQUESTED    9 SOLUTION VECTORS CONVERGED

 Convergence of RSP solution vectors, threshold = 1.00D-03
 ---------------------------------------------------------------
 (dimension of paired reduced space:   90)
 RSP solution vector no.    1; norm of residual   4.34D-04
 RSP solution vector no.    2; norm of residual   4.37D-04
 RSP solution vector no.    3; norm of residual   4.46D-04
 RSP solution vector no.    4; norm of residual   4.61D-04
 RSP solution vector no.    5; norm of residual   4.81D-04
 RSP solution vector no.    6; norm of residual   5.09D-04
 RSP solution vector no.    7; norm of residual   5.43D-04
 RSP solution vector no.    8; norm of residual   5.85D-04
 RSP solution vector no.    9; norm of residual   6.37D-04

 *** RSPCTL MICROITERATIONS CONVERGED

@ QRLRVE: SINGLET SOLUTION FOR SYMMETRY    1  ( A  )    LABEL   ZDIPLEN     FREQUENCY   0.000000D+00

@ QRLRVE:  << XDIPLEN  ; ZDIPLEN  >> (   0.00000):    2.866992182708E-17

@ QRLRVE:  << YDIPLEN  ; ZDIPLEN  >> (   0.00000):    1.697230946986E-04

@ QRLRVE:  << ZDIPLEN  ; ZDIPLEN  >> (   0.00000):     8.53255939910    

@ QRLRVE: SINGLET SOLUTION FOR SYMMETRY    1  ( A  )    LABEL   ZDIPLEN     FREQUENCY   0.198667D-01

@ QRLRVE:  << XDIPLEN  ; ZDIPLEN  >> (   0.01987):    2.600278818376E-17

@ QRLRVE:  << YDIPLEN  ; ZDIPLEN  >> (   0.01987):    1.694564511249E-04

@ QRLRVE:  << ZDIPLEN  ; ZDIPLEN  >> (   0.01987):     8.54169590754    

@ QRLRVE: SINGLET SOLUTION FOR SYMMETRY    1  ( A  )    LABEL   ZDIPLEN     FREQUENCY   0.397334D-01

@ QRLRVE:  << XDIPLEN  ; ZDIPLEN  >> (   0.03973):    1.774647626573E-17

@ QRLRVE:  << YDIPLEN  ; ZDIPLEN  >> (   0.03973):    1.686197981516E-04

@ QRLRVE:  << ZDIPLEN  ; ZDIPLEN  >> (   0.03973):     8.56929084796    

@ QRLRVE: SINGLET SOLUTION FOR SYMMETRY    1  ( A  )    LABEL   ZDIPLEN     FREQUENCY   0.596001D-01

@ QRLRVE:  << XDIPLEN  ; ZDIPLEN  >> (   0.05960):    3.093231177871E-18

@ QRLRVE:  << YDIPLEN  ; ZDIPLEN  >> (   0.05960):    1.670991986992E-04

@ QRLRVE:  << ZDIPLEN  ; ZDIPLEN  >> (   0.05960):     8.61591214603    

@ QRLRVE: SINGLET SOLUTION FOR SYMMETRY    1  ( A  )    LABEL   ZDIPLEN     FREQUENCY   0.794668D-01

@ QRLRVE:  << XDIPLEN  ; ZDIPLEN  >> (   0.07947):   -1.945781862075E-17

@ QRLRVE:  << YDIPLEN  ; ZDIPLEN  >> (   0.07947):    1.646916778961E-04

@ QRLRVE:  << ZDIPLEN  ; ZDIPLEN  >> (   0.07947):     8.68254680460    

@ QRLRVE: SINGLET SOLUTION FOR SYMMETRY    1  ( A  )    LABEL   ZDIPLEN     FREQUENCY   0.993334D-01

@ QRLRVE:  << XDIPLEN  ; ZDIPLEN  >> (   0.09933):   -5.237596984871E-17

@ QRLRVE:  << YDIPLEN  ; ZDIPLEN  >> (   0.09933):    1.610837201925E-04

@ QRLRVE:  << ZDIPLEN  ; ZDIPLEN  >> (   0.09933):     8.77066727468    

@ QRLRVE: SINGLET SOLUTION FOR SYMMETRY    1  ( A  )    LABEL   ZDIPLEN     FREQUENCY   0.119200D+00

@ QRLRVE:  << XDIPLEN  ; ZDIPLEN  >> (   0.11920):   -9.958825844833E-17

@ QRLRVE:  << YDIPLEN  ; ZDIPLEN  >> (   0.11920):    1.558170509096E-04

@ QRLRVE:  << ZDIPLEN  ; ZDIPLEN  >> (   0.11920):     8.88233708084    

@ QRLRVE: SINGLET SOLUTION FOR SYMMETRY    1  ( A  )    LABEL   ZDIPLEN     FREQUENCY   0.139067D+00

@ QRLRVE:  << XDIPLEN  ; ZDIPLEN  >> (   0.13907):   -1.673357518586E-16

@ QRLRVE:  << YDIPLEN  ; ZDIPLEN  >> (   0.13907):    1.482367030898E-04

@ QRLRVE:  << ZDIPLEN  ; ZDIPLEN  >> (   0.13907):     9.02037203177    

@ QRLRVE: SINGLET SOLUTION FOR SYMMETRY    1  ( A  )    LABEL   ZDIPLEN     FREQUENCY   0.158934D+00

@ QRLRVE:  << XDIPLEN  ; ZDIPLEN  >> (   0.15893):   -2.656937865780E-16

@ QRLRVE:  << YDIPLEN  ; ZDIPLEN  >> (   0.15893):    1.374134820983E-04

@ QRLRVE:  << ZDIPLEN  ; ZDIPLEN  >> (   0.15893):     9.18858470265    
 
 ======================================================================
 ---  L I N E A R   R E S P O N S E   F U N C T I O N S --- 
 ======================================================================

 The -<<A;B>>(omega_b) functions from vectors generated
 in a *QUADRA calculation of <<A;B,C>>(omega_b,omega_c)

 Note: the accuracy of off-diagonal elements will be linear
 in the convergence threshold THCLR =  1.00D-03


 Perturbation symmetry.     KSYMOP:           1
 Perturbation spin symmetry.TRPLET:           F
 Orbital variables.         KZWOPT:        1540
 Configuration variables.   KZCONF:           0
 Total number of variables. KZVAR :        1540

@ Singlet linear response function in a.u.

@ A operator, symmetry, frequency:   XDIPLEN    1  0.000000
@ B operator, symmetry, frequency:   XDIPLEN    1  0.000000

@ Value of linear response -<<A;B>>(omega):       7.905476768734

@ Singlet linear response function in a.u.

@ A operator, symmetry, frequency:   YDIPLEN    1  0.000000
@ B operator, symmetry, frequency:   XDIPLEN    1  0.000000

@ Value of linear response -<<A;B>>(omega):      -0.000000000000

@ Singlet linear response function in a.u.

@ A operator, symmetry, frequency:   ZDIPLEN    1  0.000000
@ B operator, symmetry, frequency:   XDIPLEN    1  0.000000

[...]
@ B-freq = 0.059600  C-freq = 0.059600     beta(Y;Z,Y) =     10.37517591
@ B-freq = 0.059600  C-freq = 0.059600     beta(Z;Z,Y) =     -0.00229556
@ B-freq = 0.079467  C-freq = 0.059600     beta(X;Z,Y) =     -0.00000000
@ B-freq = 0.079467  C-freq = 0.059600     beta(Y;Z,Y) =     10.76484557
@ B-freq = 0.079467  C-freq = 0.059600     beta(Z;Z,Y) =     -0.00265819
@ B-freq = 0.000000  C-freq = 0.079467     beta(X;X,Y) = beta(X,Y,X)
@ B-freq = 0.000000  C-freq = 0.079467     beta(Y;X,Y) = beta(Y,Y,X)
@ B-freq = 0.000000  C-freq = 0.079467     beta(Z;X,Y) = beta(Z,Y,X)
@ B-freq = 0.019867  C-freq = 0.079467     beta(X;X,Y) = beta(X,Y,X)
@ B-freq = 0.019867  C-freq = 0.079467     beta(Y;X,Y) = beta(Y,Y,X)
@ B-freq = 0.019867  C-freq = 0.079467     beta(Z;X,Y) = beta(Z,Y,X)
@ B-freq = 0.039733  C-freq = 0.079467     beta(X;X,Y) = beta(X,Y,X)
@ B-freq = 0.039733  C-freq = 0.079467     beta(Y;X,Y) = beta(Y,Y,X)
@ B-freq = 0.039733  C-freq = 0.079467     beta(Z;X,Y) = beta(Z,Y,X)
@ B-freq = 0.059600  C-freq = 0.079467     beta(X;X,Y) = beta(X,Y,X)
@ B-freq = 0.059600  C-freq = 0.079467     beta(Y;X,Y) = beta(Y,Y,X)
@ B-freq = 0.059600  C-freq = 0.079467     beta(Z;X,Y) = beta(Z,Y,X)
@ B-freq = 0.079467  C-freq = 0.079467     beta(X;X,Y) = beta(X,Y,X)
@ B-freq = 0.079467  C-freq = 0.079467     beta(Y;X,Y) = beta(Y,Y,X)
@ B-freq = 0.079467  C-freq = 0.079467     beta(Z;X,Y) = beta(Z,Y,X)
@ B-freq = 0.000000  C-freq = 0.079467     beta(X;Y,Y) = beta(X,Y,Y)
@ B-freq = 0.000000  C-freq = 0.079467     beta(Y;Y,Y) = beta(Y,Y,Y)
@ B-freq = 0.000000  C-freq = 0.079467     beta(Z;Y,Y) = beta(Z,Y,Y)
@ B-freq = 0.019867  C-freq = 0.079467     beta(X;Y,Y) = beta(X,Y,Y)
@ B-freq = 0.019867  C-freq = 0.079467     beta(Y;Y,Y) = beta(Y,Y,Y)
@ B-freq = 0.019867  C-freq = 0.079467     beta(Z;Y,Y) = beta(Z,Y,Y)
@ B-freq = 0.039733  C-freq = 0.079467     beta(X;Y,Y) = beta(X,Y,Y)
@ B-freq = 0.039733  C-freq = 0.079467     beta(Y;Y,Y) = beta(Y,Y,Y)
@ B-freq = 0.039733  C-freq = 0.079467     beta(Z;Y,Y) = beta(Z,Y,Y)
@ B-freq = 0.059600  C-freq = 0.079467     beta(X;Y,Y) = beta(X,Y,Y)
@ B-freq = 0.059600  C-freq = 0.079467     beta(Y;Y,Y) = beta(Y,Y,Y)
@ B-freq = 0.059600  C-freq = 0.079467     beta(Z;Y,Y) = beta(Z,Y,Y)
@ B-freq = 0.079467  C-freq = 0.079467     beta(X;Y,Y) =      0.00000000
@ B-freq = 0.079467  C-freq = 0.079467     beta(Y;Y,Y) =     -0.00066889
@ B-freq = 0.079467  C-freq = 0.079467     beta(Z;Y,Y) =     11.28212852
@ B-freq = 0.000000  C-freq = 0.079467     beta(X;Z,Y) =     -0.00000000
@ B-freq = 0.000000  C-freq = 0.079467     beta(Y;Z,Y) =      9.97121653
@ B-freq = 0.000000  C-freq = 0.079467     beta(Z;Z,Y) =     -0.00185317
@ B-freq = 0.019867  C-freq = 0.079467     beta(X;Z,Y) =     -0.00000000
@ B-freq = 0.019867  C-freq = 0.079467     beta(Y;Z,Y) =     10.14914204
@ B-freq = 0.019867  C-freq = 0.079467     beta(Z;Z,Y) =     -0.00200021
@ B-freq = 0.039733  C-freq = 0.079467     beta(X;Z,Y) =     -0.00000000
@ B-freq = 0.039733  C-freq = 0.079467     beta(Y;Z,Y) =     10.40794262
@ B-freq = 0.039733  C-freq = 0.079467     beta(Z;Z,Y) =     -0.00222384
@ B-freq = 0.059600  C-freq = 0.079467     beta(X;Z,Y) =     -0.00000000
@ B-freq = 0.059600  C-freq = 0.079467     beta(Y;Z,Y) =     10.75739618
@ B-freq = 0.059600  C-freq = 0.079467     beta(Z;Z,Y) =     -0.00254512
@ B-freq = 0.079467  C-freq = 0.079467     beta(X;Z,Y) =     -0.00000000
@ B-freq = 0.079467  C-freq = 0.079467     beta(Y;Z,Y) =     11.21163097
@ B-freq = 0.079467  C-freq = 0.079467     beta(Z;Z,Y) =     -0.00299669
@ B-freq = 0.000000  C-freq = 0.000000     beta(X;X,Z) = beta(Z,X,X)
@ B-freq = 0.000000  C-freq = 0.000000     beta(Y;X,Z) = beta(Z,Y,X)
@ B-freq = 0.000000  C-freq = 0.000000     beta(Z;X,Z) = beta(Z,Z,X)
@ B-freq = 0.019867  C-freq = 0.000000     beta(X;X,Z) = beta(X,Z,X)
@ B-freq = 0.019867  C-freq = 0.000000     beta(Y;X,Z) = beta(Y,Z,X)
@ B-freq = 0.019867  C-freq = 0.000000     beta(Z;X,Z) = beta(Z,Z,X)
@ B-freq = 0.039733  C-freq = 0.000000     beta(X;X,Z) = beta(X,Z,X)
@ B-freq = 0.039733  C-freq = 0.000000     beta(Y;X,Z) = beta(Y,Z,X)
@ B-freq = 0.039733  C-freq = 0.000000     beta(Z;X,Z) = beta(Z,Z,X)
@ B-freq = 0.059600  C-freq = 0.000000     beta(X;X,Z) = beta(X,Z,X)
@ B-freq = 0.059600  C-freq = 0.000000     beta(Y;X,Z) = beta(Y,Z,X)
@ B-freq = 0.059600  C-freq = 0.000000     beta(Z;X,Z) = beta(Z,Z,X)
@ B-freq = 0.079467  C-freq = 0.000000     beta(X;X,Z) = beta(X,Z,X)
@ B-freq = 0.079467  C-freq = 0.000000     beta(Y;X,Z) = beta(Y,Z,X)
@ B-freq = 0.079467  C-freq = 0.000000     beta(Z;X,Z) = beta(Z,Z,X)
@ B-freq = 0.000000  C-freq = 0.000000     beta(X;Y,Z) = beta(Z,Y,X)
@ B-freq = 0.000000  C-freq = 0.000000     beta(Y;Y,Z) = beta(Z,Y,Y)
@ B-freq = 0.000000  C-freq = 0.000000     beta(Z;Y,Z) = beta(Z,Z,Y)
@ B-freq = 0.019867  C-freq = 0.000000     beta(X;Y,Z) = beta(X,Z,Y)
@ B-freq = 0.019867  C-freq = 0.000000     beta(Y;Y,Z) = beta(Y,Z,Y)
@ B-freq = 0.019867  C-freq = 0.000000     beta(Z;Y,Z) = beta(Z,Z,Y)
@ B-freq = 0.039733  C-freq = 0.000000     beta(X;Y,Z) = beta(X,Z,Y)
@ B-freq = 0.039733  C-freq = 0.000000     beta(Y;Y,Z) = beta(Y,Z,Y)
@ B-freq = 0.039733  C-freq = 0.000000     beta(Z;Y,Z) = beta(Z,Z,Y)
@ B-freq = 0.059600  C-freq = 0.000000     beta(X;Y,Z) = beta(X,Z,Y)
@ B-freq = 0.059600  C-freq = 0.000000     beta(Y;Y,Z) = beta(Y,Z,Y)
@ B-freq = 0.059600  C-freq = 0.000000     beta(Z;Y,Z) = beta(Z,Z,Y)
@ B-freq = 0.079467  C-freq = 0.000000     beta(X;Y,Z) = beta(X,Z,Y)
@ B-freq = 0.079467  C-freq = 0.000000     beta(Y;Y,Z) = beta(Y,Z,Y)
@ B-freq = 0.079467  C-freq = 0.000000     beta(Z;Y,Z) = beta(Z,Z,Y)
@ B-freq = 0.000000  C-freq = 0.000000     beta(X;Z,Z) = beta(Z,Z,X)
@ B-freq = 0.000000  C-freq = 0.000000     beta(Y;Z,Z) = beta(Z,Z,Y)
@ B-freq = 0.000000  C-freq = 0.000000     beta(X;Z,Z) =      0.00000000
@ B-freq = 0.000000  C-freq = 0.000000     beta(Y;Z,Z) =     -0.00163987
@ B-freq = 0.000000  C-freq = 0.000000     beta(Z;Z,Z) =      7.73391120
@ B-freq = 0.019867  C-freq = 0.000000     beta(X;Z,Z) =      0.00000000
@ B-freq = 0.019867  C-freq = 0.000000     beta(Y;Z,Z) =     -0.00165223
@ B-freq = 0.019867  C-freq = 0.000000     beta(Z;Z,Z) =      7.76983683
@ B-freq = 0.039733  C-freq = 0.000000     beta(X;Z,Z) =      0.00000000
@ B-freq = 0.039733  C-freq = 0.000000     beta(Y;Z,Z) =     -0.00169004
@ B-freq = 0.039733  C-freq = 0.000000     beta(Z;Z,Z) =      7.87922323
@ B-freq = 0.059600  C-freq = 0.000000     beta(X;Z,Z) =      0.00000000
@ B-freq = 0.059600  C-freq = 0.000000     beta(Y;Z,Z) =     -0.00175564
@ B-freq = 0.059600  C-freq = 0.000000     beta(Z;Z,Z) =      8.06706385
@ B-freq = 0.079467  C-freq = 0.000000     beta(X;Z,Z) =      0.00000000
@ B-freq = 0.079467  C-freq = 0.000000     beta(Y;Z,Z) =     -0.00185317
@ B-freq = 0.079467  C-freq = 0.000000     beta(Z;Z,Z) =      8.34226083
@ B-freq = 0.000000  C-freq = 0.019867     beta(X;X,Z) = beta(X,Z,X)
@ B-freq = 0.000000  C-freq = 0.019867     beta(Y;X,Z) = beta(Y,Z,X)
@ B-freq = 0.000000  C-freq = 0.019867     beta(Z;X,Z) = beta(Z,Z,X)
@ B-freq = 0.019867  C-freq = 0.019867     beta(X;X,Z) = beta(X,Z,X)
@ B-freq = 0.019867  C-freq = 0.019867     beta(Y;X,Z) = beta(Y,Z,X)
@ B-freq = 0.019867  C-freq = 0.019867     beta(Z;X,Z) = beta(Z,Z,X)
@ B-freq = 0.039733  C-freq = 0.019867     beta(X;X,Z) = beta(X,Z,X)
@ B-freq = 0.039733  C-freq = 0.019867     beta(Y;X,Z) = beta(Y,Z,X)
@ B-freq = 0.039733  C-freq = 0.019867     beta(Z;X,Z) = beta(Z,Z,X)
@ B-freq = 0.059600  C-freq = 0.019867     beta(X;X,Z) = beta(X,Z,X)
@ B-freq = 0.059600  C-freq = 0.019867     beta(Y;X,Z) = beta(Y,Z,X)
@ B-freq = 0.059600  C-freq = 0.019867     beta(Z;X,Z) = beta(Z,Z,X)
@ B-freq = 0.079467  C-freq = 0.019867     beta(X;X,Z) = beta(X,Z,X)
@ B-freq = 0.079467  C-freq = 0.019867     beta(Y;X,Z) = beta(Y,Z,X)
@ B-freq = 0.079467  C-freq = 0.019867     beta(Z;X,Z) = beta(Z,Z,X)
@ B-freq = 0.000000  C-freq = 0.019867     beta(X;Y,Z) = beta(X,Z,Y)
@ B-freq = 0.000000  C-freq = 0.019867     beta(Y;Y,Z) = beta(Y,Z,Y)
@ B-freq = 0.000000  C-freq = 0.019867     beta(Z;Y,Z) = beta(Z,Z,Y)
@ B-freq = 0.019867  C-freq = 0.019867     beta(X;Y,Z) = beta(X,Z,Y)
@ B-freq = 0.019867  C-freq = 0.019867     beta(Y;Y,Z) = beta(Y,Z,Y)
@ B-freq = 0.019867  C-freq = 0.019867     beta(Z;Y,Z) = beta(Z,Z,Y)
@ B-freq = 0.039733  C-freq = 0.019867     beta(X;Y,Z) = beta(X,Z,Y)
@ B-freq = 0.039733  C-freq = 0.019867     beta(Y;Y,Z) = beta(Y,Z,Y)
@ B-freq = 0.039733  C-freq = 0.019867     beta(Z;Y,Z) = beta(Z,Z,Y)
@ B-freq = 0.059600  C-freq = 0.019867     beta(X;Y,Z) = beta(X,Z,Y)
@ B-freq = 0.059600  C-freq = 0.019867     beta(Y;Y,Z) = beta(Y,Z,Y)
@ B-freq = 0.059600  C-freq = 0.019867     beta(Z;Y,Z) = beta(Z,Z,Y)
@ B-freq = 0.079467  C-freq = 0.019867     beta(X;Y,Z) = beta(X,Z,Y)
@ B-freq = 0.079467  C-freq = 0.019867     beta(Y;Y,Z) = beta(Y,Z,Y)
@ B-freq = 0.079467  C-freq = 0.019867     beta(Z;Y,Z) = beta(Z,Z,Y)
@ B-freq = 0.000000  C-freq = 0.019867     beta(X;Z,Z) = beta(X,Z,Z)
@ B-freq = 0.000000  C-freq = 0.019867     beta(Y;Z,Z) = beta(Y,Z,Z)
@ B-freq = 0.000000  C-freq = 0.019867     beta(Z;Z,Z) = beta(Z,Z,Z)
@ B-freq = 0.019867  C-freq = 0.019867     beta(X;Z,Z) =      0.00000000
@ B-freq = 0.019867  C-freq = 0.019867     beta(Y;Z,Z) =     -0.00166503
@ B-freq = 0.019867  C-freq = 0.019867     beta(Z;Z,Z) =      7.84249059
@ B-freq = 0.039733  C-freq = 0.019867     beta(X;Z,Z) =      0.00000000
@ B-freq = 0.039733  C-freq = 0.019867     beta(Y;Z,Z) =     -0.00170339
@ B-freq = 0.039733  C-freq = 0.019867     beta(Z;Z,Z) =      7.99108541
@ B-freq = 0.059600  C-freq = 0.019867     beta(X;Z,Z) =      0.00000000
@ B-freq = 0.059600  C-freq = 0.019867     beta(Y;Z,Z) =     -0.00176967
@ B-freq = 0.059600  C-freq = 0.019867     beta(Z;Z,Z) =      8.22253707
@ B-freq = 0.079467  C-freq = 0.019867     beta(X;Z,Z) =      0.00000000
@ B-freq = 0.079467  C-freq = 0.019867     beta(Y;Z,Z) =     -0.00186808
@ B-freq = 0.079467  C-freq = 0.019867     beta(Z;Z,Z) =      8.54813580
@ B-freq = 0.000000  C-freq = 0.039733     beta(X;X,Z) = beta(X,Z,X)
@ B-freq = 0.000000  C-freq = 0.039733     beta(Y;X,Z) = beta(Y,Z,X)
@ B-freq = 0.000000  C-freq = 0.039733     beta(Z;X,Z) = beta(Z,Z,X)
@ B-freq = 0.019867  C-freq = 0.039733     beta(X;X,Z) = beta(X,Z,X)
@ B-freq = 0.019867  C-freq = 0.039733     beta(Y;X,Z) = beta(Y,Z,X)
@ B-freq = 0.019867  C-freq = 0.039733     beta(Z;X,Z) = beta(Z,Z,X)
@ B-freq = 0.039733  C-freq = 0.039733     beta(X;X,Z) = beta(X,Z,X)
@ B-freq = 0.039733  C-freq = 0.039733     beta(Y;X,Z) = beta(Y,Z,X)
@ B-freq = 0.039733  C-freq = 0.039733     beta(Z;X,Z) = beta(Z,Z,X)
@ B-freq = 0.059600  C-freq = 0.039733     beta(X;X,Z) = beta(X,Z,X)
@ B-freq = 0.059600  C-freq = 0.039733     beta(Y;X,Z) = beta(Y,Z,X)
@ B-freq = 0.059600  C-freq = 0.039733     beta(Z;X,Z) = beta(Z,Z,X)
@ B-freq = 0.079467  C-freq = 0.039733     beta(X;X,Z) = beta(X,Z,X)
@ B-freq = 0.079467  C-freq = 0.039733     beta(Y;X,Z) = beta(Y,Z,X)
@ B-freq = 0.079467  C-freq = 0.039733     beta(Z;X,Z) = beta(Z,Z,X)
@ B-freq = 0.000000  C-freq = 0.039733     beta(X;Y,Z) = beta(X,Z,Y)
@ B-freq = 0.000000  C-freq = 0.039733     beta(Y;Y,Z) = beta(Y,Z,Y)
@ B-freq = 0.000000  C-freq = 0.039733     beta(Z;Y,Z) = beta(Z,Z,Y)
@ B-freq = 0.019867  C-freq = 0.039733     beta(X;Y,Z) = beta(X,Z,Y)
@ B-freq = 0.019867  C-freq = 0.039733     beta(Y;Y,Z) = beta(Y,Z,Y)
@ B-freq = 0.019867  C-freq = 0.039733     beta(Z;Y,Z) = beta(Z,Z,Y)
@ B-freq = 0.039733  C-freq = 0.039733     beta(X;Y,Z) = beta(X,Z,Y)
@ B-freq = 0.039733  C-freq = 0.039733     beta(Y;Y,Z) = beta(Y,Z,Y)
@ B-freq = 0.039733  C-freq = 0.039733     beta(Z;Y,Z) = beta(Z,Z,Y)
@ B-freq = 0.059600  C-freq = 0.039733     beta(X;Y,Z) = beta(X,Z,Y)
@ B-freq = 0.059600  C-freq = 0.039733     beta(Y;Y,Z) = beta(Y,Z,Y)
@ B-freq = 0.059600  C-freq = 0.039733     beta(Z;Y,Z) = beta(Z,Z,Y)
@ B-freq = 0.079467  C-freq = 0.039733     beta(X;Y,Z) = beta(X,Z,Y)
@ B-freq = 0.079467  C-freq = 0.039733     beta(Y;Y,Z) = beta(Y,Z,Y)
@ B-freq = 0.079467  C-freq = 0.039733     beta(Z;Y,Z) = beta(Z,Z,Y)
@ B-freq = 0.000000  C-freq = 0.039733     beta(X;Z,Z) = beta(X,Z,Z)
@ B-freq = 0.000000  C-freq = 0.039733     beta(Y;Z,Z) = beta(Y,Z,Z)
@ B-freq = 0.000000  C-freq = 0.039733     beta(Z;Z,Z) = beta(Z,Z,Z)
@ B-freq = 0.019867  C-freq = 0.039733     beta(X;Z,Z) = beta(X,Z,Z)
@ B-freq = 0.019867  C-freq = 0.039733     beta(Y;Z,Z) = beta(Y,Z,Z)
@ B-freq = 0.019867  C-freq = 0.039733     beta(Z;Z,Z) = beta(Z,Z,Z)
@ B-freq = 0.039733  C-freq = 0.039733     beta(X;Z,Z) =      0.00000000
@ B-freq = 0.039733  C-freq = 0.039733     beta(Y;Z,Z) =     -0.00174259
@ B-freq = 0.039733  C-freq = 0.039733     beta(Z;Z,Z) =      8.18324274
@ B-freq = 0.059600  C-freq = 0.039733     beta(X;Z,Z) =      0.00000000
@ B-freq = 0.059600  C-freq = 0.039733     beta(Y;Z,Z) =     -0.00181003
@ B-freq = 0.059600  C-freq = 0.039733     beta(Z;Z,Z) =      8.46491310
@ B-freq = 0.079467  C-freq = 0.039733     beta(X;Z,Z) =      0.00000000
@ B-freq = 0.079467  C-freq = 0.039733     beta(Y;Z,Z) =     -0.00190998
@ B-freq = 0.079467  C-freq = 0.039733     beta(Z;Z,Z) =      8.85040148
@ B-freq = 0.000000  C-freq = 0.059600     beta(X;X,Z) = beta(X,Z,X)
@ B-freq = 0.000000  C-freq = 0.059600     beta(Y;X,Z) = beta(Y,Z,X)
@ B-freq = 0.000000  C-freq = 0.059600     beta(Z;X,Z) = beta(Z,Z,X)
@ B-freq = 0.019867  C-freq = 0.059600     beta(X;X,Z) = beta(X,Z,X)
@ B-freq = 0.019867  C-freq = 0.059600     beta(Y;X,Z) = beta(Y,Z,X)
@ B-freq = 0.019867  C-freq = 0.059600     beta(Z;X,Z) = beta(Z,Z,X)
@ B-freq = 0.039733  C-freq = 0.059600     beta(X;X,Z) = beta(X,Z,X)
@ B-freq = 0.039733  C-freq = 0.059600     beta(Y;X,Z) = beta(Y,Z,X)
@ B-freq = 0.039733  C-freq = 0.059600     beta(Z;X,Z) = beta(Z,Z,X)
@ B-freq = 0.059600  C-freq = 0.059600     beta(X;X,Z) = beta(X,Z,X)
@ B-freq = 0.059600  C-freq = 0.059600     beta(Y;X,Z) = beta(Y,Z,X)
@ B-freq = 0.059600  C-freq = 0.059600     beta(Z;X,Z) = beta(Z,Z,X)
@ B-freq = 0.079467  C-freq = 0.059600     beta(X;X,Z) = beta(X,Z,X)
@ B-freq = 0.079467  C-freq = 0.059600     beta(Y;X,Z) = beta(Y,Z,X)
@ B-freq = 0.079467  C-freq = 0.059600     beta(Z;X,Z) = beta(Z,Z,X)
@ B-freq = 0.000000  C-freq = 0.059600     beta(X;Y,Z) = beta(X,Z,Y)
@ B-freq = 0.000000  C-freq = 0.059600     beta(Y;Y,Z) = beta(Y,Z,Y)
@ B-freq = 0.000000  C-freq = 0.059600     beta(Z;Y,Z) = beta(Z,Z,Y)
@ B-freq = 0.019867  C-freq = 0.059600     beta(X;Y,Z) = beta(X,Z,Y)
@ B-freq = 0.019867  C-freq = 0.059600     beta(Y;Y,Z) = beta(Y,Z,Y)
@ B-freq = 0.019867  C-freq = 0.059600     beta(Z;Y,Z) = beta(Z,Z,Y)
@ B-freq = 0.039733  C-freq = 0.059600     beta(X;Y,Z) = beta(X,Z,Y)
@ B-freq = 0.039733  C-freq = 0.059600     beta(Y;Y,Z) = beta(Y,Z,Y)
@ B-freq = 0.039733  C-freq = 0.059600     beta(Z;Y,Z) = beta(Z,Z,Y)
@ B-freq = 0.059600  C-freq = 0.059600     beta(X;Y,Z) = beta(X,Z,Y)
@ B-freq = 0.059600  C-freq = 0.059600     beta(Y;Y,Z) = beta(Y,Z,Y)
@ B-freq = 0.059600  C-freq = 0.059600     beta(Z;Y,Z) = beta(Z,Z,Y)
@ B-freq = 0.079467  C-freq = 0.059600     beta(X;Y,Z) = beta(X,Z,Y)
@ B-freq = 0.079467  C-freq = 0.059600     beta(Y;Y,Z) = beta(Y,Z,Y)
@ B-freq = 0.079467  C-freq = 0.059600     beta(Z;Y,Z) = beta(Z,Z,Y)
@ B-freq = 0.000000  C-freq = 0.059600     beta(X;Z,Z) = beta(X,Z,Z)
@ B-freq = 0.000000  C-freq = 0.059600     beta(Y;Z,Z) = beta(Y,Z,Z)
@ B-freq = 0.000000  C-freq = 0.059600     beta(Z;Z,Z) = beta(Z,Z,Z)
@ B-freq = 0.019867  C-freq = 0.059600     beta(X;Z,Z) = beta(X,Z,Z)
@ B-freq = 0.019867  C-freq = 0.059600     beta(Y;Z,Z) = beta(Y,Z,Z)
@ B-freq = 0.019867  C-freq = 0.059600     beta(Z;Z,Z) = beta(Z,Z,Z)
@ B-freq = 0.039733  C-freq = 0.059600     beta(X;Z,Z) = beta(X,Z,Z)
@ B-freq = 0.039733  C-freq = 0.059600     beta(Y;Z,Z) = beta(Y,Z,Z)
@ B-freq = 0.039733  C-freq = 0.059600     beta(Z;Z,Z) = beta(Z,Z,Z)
@ B-freq = 0.059600  C-freq = 0.059600     beta(X;Z,Z) =      0.00000000
@ B-freq = 0.059600  C-freq = 0.059600     beta(Y;Z,Z) =     -0.00187912
@ B-freq = 0.059600  C-freq = 0.059600     beta(Z;Z,Z) =      8.80631508
@ B-freq = 0.079467  C-freq = 0.059600     beta(X;Z,Z) =      0.00000000
@ B-freq = 0.079467  C-freq = 0.059600     beta(Y;Z,Z) =     -0.00198127
@ B-freq = 0.079467  C-freq = 0.059600     beta(Z;Z,Z) =      9.26501904
@ B-freq = 0.000000  C-freq = 0.079467     beta(X;X,Z) = beta(X,Z,X)
@ B-freq = 0.000000  C-freq = 0.079467     beta(Y;X,Z) = beta(Y,Z,X)
@ B-freq = 0.000000  C-freq = 0.079467     beta(Z;X,Z) = beta(Z,Z,X)
@ B-freq = 0.019867  C-freq = 0.079467     beta(X;X,Z) = beta(X,Z,X)
@ B-freq = 0.019867  C-freq = 0.079467     beta(Y;X,Z) = beta(Y,Z,X)
@ B-freq = 0.019867  C-freq = 0.079467     beta(Z;X,Z) = beta(Z,Z,X)
@ B-freq = 0.039733  C-freq = 0.079467     beta(X;X,Z) = beta(X,Z,X)
@ B-freq = 0.039733  C-freq = 0.079467     beta(Y;X,Z) = beta(Y,Z,X)
@ B-freq = 0.039733  C-freq = 0.079467     beta(Z;X,Z) = beta(Z,Z,X)
@ B-freq = 0.059600  C-freq = 0.079467     beta(X;X,Z) = beta(X,Z,X)
@ B-freq = 0.059600  C-freq = 0.079467     beta(Y;X,Z) = beta(Y,Z,X)
@ B-freq = 0.059600  C-freq = 0.079467     beta(Z;X,Z) = beta(Z,Z,X)
@ B-freq = 0.079467  C-freq = 0.079467     beta(X;X,Z) = beta(X,Z,X)
@ B-freq = 0.079467  C-freq = 0.079467     beta(Y;X,Z) = beta(Y,Z,X)
@ B-freq = 0.079467  C-freq = 0.079467     beta(Z;X,Z) = beta(Z,Z,X)
@ B-freq = 0.000000  C-freq = 0.079467     beta(X;Y,Z) = beta(X,Z,Y)
@ B-freq = 0.000000  C-freq = 0.079467     beta(Y;Y,Z) = beta(Y,Z,Y)
@ B-freq = 0.000000  C-freq = 0.079467     beta(Z;Y,Z) = beta(Z,Z,Y)
@ B-freq = 0.019867  C-freq = 0.079467     beta(X;Y,Z) = beta(X,Z,Y)
@ B-freq = 0.019867  C-freq = 0.079467     beta(Y;Y,Z) = beta(Y,Z,Y)
@ B-freq = 0.019867  C-freq = 0.079467     beta(Z;Y,Z) = beta(Z,Z,Y)
@ B-freq = 0.039733  C-freq = 0.079467     beta(X;Y,Z) = beta(X,Z,Y)
@ B-freq = 0.039733  C-freq = 0.079467     beta(Y;Y,Z) = beta(Y,Z,Y)
@ B-freq = 0.039733  C-freq = 0.079467     beta(Z;Y,Z) = beta(Z,Z,Y)
@ B-freq = 0.059600  C-freq = 0.079467     beta(X;Y,Z) = beta(X,Z,Y)
@ B-freq = 0.059600  C-freq = 0.079467     beta(Y;Y,Z) = beta(Y,Z,Y)
@ B-freq = 0.059600  C-freq = 0.079467     beta(Z;Y,Z) = beta(Z,Z,Y)
@ B-freq = 0.079467  C-freq = 0.079467     beta(X;Y,Z) = beta(X,Z,Y)
@ B-freq = 0.079467  C-freq = 0.079467     beta(Y;Y,Z) = beta(Y,Z,Y)
@ B-freq = 0.079467  C-freq = 0.079467     beta(Z;Y,Z) = beta(Z,Z,Y)
@ B-freq = 0.000000  C-freq = 0.079467     beta(X;Z,Z) = beta(X,Z,Z)
@ B-freq = 0.000000  C-freq = 0.079467     beta(Y;Z,Z) = beta(Y,Z,Z)
@ B-freq = 0.000000  C-freq = 0.079467     beta(Z;Z,Z) = beta(Z,Z,Z)
@ B-freq = 0.019867  C-freq = 0.079467     beta(X;Z,Z) = beta(X,Z,Z)
@ B-freq = 0.019867  C-freq = 0.079467     beta(Y;Z,Z) = beta(Y,Z,Z)
@ B-freq = 0.019867  C-freq = 0.079467     beta(Z;Z,Z) = beta(Z,Z,Z)
@ B-freq = 0.039733  C-freq = 0.079467     beta(X;Z,Z) = beta(X,Z,Z)
@ B-freq = 0.039733  C-freq = 0.079467     beta(Y;Z,Z) = beta(Y,Z,Z)
@ B-freq = 0.039733  C-freq = 0.079467     beta(Z;Z,Z) = beta(Z,Z,Z)
@ B-freq = 0.059600  C-freq = 0.079467     beta(X;Z,Z) = beta(X,Z,Z)
@ B-freq = 0.059600  C-freq = 0.079467     beta(Y;Z,Z) = beta(Y,Z,Z)
@ B-freq = 0.059600  C-freq = 0.079467     beta(Z;Z,Z) = beta(Z,Z,Z)
@ B-freq = 0.079467  C-freq = 0.079467     beta(X;Z,Z) =      0.00000000
@ B-freq = 0.079467  C-freq = 0.079467     beta(Y;Z,Z) =     -0.00208631
@ B-freq = 0.079467  C-freq = 0.079467     beta(Z;Z,Z) =      9.81570318

  Total CPU  time used in RESPONSE: 10 minutes 42 seconds
  Total wall time used in RESPONSE: 10 minutes 44 seconds


                   .-------------------------------------------.
                   | End of Dynamic Property Section (RESPONS) |
                   `-------------------------------------------'

  Total CPU  time used in DALTON: 11 minutes 18 seconds
  Total wall time used in DALTON: 11 minutes 19 seconds

 
     Date and time (Linux)  : Mon Jul 22 11:19:31 2024
     Host name              : sn-mem                                  
