

     ************************************************************************
     *************** Dalton - An Electronic Structure Program ***************
     ************************************************************************

    This is output from DALTON release Dalton2020.0 (2020)
         ( Web site: http://daltonprogram.org )

   ----------------------------------------------------------------------------

    NOTE:
     
    Dalton is an experimental code for the evaluation of molecular
    properties using (MC)SCF, DFT, CI, and CC wave functions.
    The authors accept no responsibility for the performance of
    the code or for the correctness of the results.
     
    The code (in whole or part) is provided under a licence and
    is not to be reproduced for further distribution without
    the written permission of the authors or their representatives.
     
    See the home page "http://daltonprogram.org" for further information.
     
    If results obtained with this code are published,
    the appropriate citations would be both of:
     
       K. Aidas, C. Angeli, K. L. Bak, V. Bakken, R. Bast,
       L. Boman, O. Christiansen, R. Cimiraglia, S. Coriani,
       P. Dahle, E. K. Dalskov, U. Ekstroem,
       T. Enevoldsen, J. J. Eriksen, P. Ettenhuber, B. Fernandez,
       L. Ferrighi, H. Fliegl, L. Frediani, K. Hald, A. Halkier,
       C. Haettig, H. Heiberg, T. Helgaker, A. C. Hennum,
       H. Hettema, E. Hjertenaes, S. Hoest, I.-M. Hoeyvik,
       M. F. Iozzi, B. Jansik, H. J. Aa. Jensen, D. Jonsson,
       P. Joergensen, J. Kauczor, S. Kirpekar,
       T. Kjaergaard, W. Klopper, S. Knecht, R. Kobayashi, H. Koch,
       J. Kongsted, A. Krapp, K. Kristensen, A. Ligabue,
       O. B. Lutnaes, J. I. Melo, K. V. Mikkelsen, R. H. Myhre,
       C. Neiss, C. B. Nielsen, P. Norman, J. Olsen,
       J. M. H. Olsen, A. Osted, M. J. Packer, F. Pawlowski,
       T. B. Pedersen, P. F. Provasi, S. Reine, Z. Rinkevicius,
       T. A. Ruden, K. Ruud, V. Rybkin, P. Salek, C. C. M. Samson,
       A. Sanchez de Meras, T. Saue, S. P. A. Sauer,
       B. Schimmelpfennig, K. Sneskov, A. H. Steindal,
       K. O. Sylvester-Hvid, P. R. Taylor, A. M. Teale,
       E. I. Tellgren, D. P. Tew, A. J. Thorvaldsen, L. Thoegersen,
       O. Vahtras, M. A. Watson, D. J. D. Wilson, M. Ziolkowski
       and H. Agren,
       "The Dalton quantum chemistry program system",
       WIREs Comput. Mol. Sci. 2014, 4:269–284 (doi: 10.1002/wcms.1172)
     
    and
     
       Dalton, a molecular electronic structure program,
       Release Dalton2020.0 (2020), see http://daltonprogram.org
   ----------------------------------------------------------------------------

    Authors in alphabetical order (Major contribution(s) in parenthesis):

  Kestutis Aidas,           Vilnius University,           Lithuania   (QM/MM)
  Celestino Angeli,         University of Ferrara,        Italy       (NEVPT2)
  Keld L. Bak,              UNI-C,                        Denmark     (AOSOPPA, non-adiabatic coupling, magnetic properties)
  Vebjoern Bakken,          University of Oslo,           Norway      (DALTON; geometry optimizer, symmetry detection)
  Radovan Bast,             UiT The Arctic U. of Norway,  Norway      (DALTON installation and execution frameworks)
  Pablo Baudin,             University of Valencia,       Spain       (Cholesky excitation energies)
  Linus Boman,              NTNU,                         Norway      (Cholesky decomposition and subsystems)
  Bruno N. Cabral Tenorio,  Technical Univ. of Denmark,   Denmark     (Lanczos-based CC methods)
  Ove Christiansen,         Aarhus University,            Denmark     (CC module)
  Renzo Cimiraglia,         University of Ferrara,        Italy       (NEVPT2)
  Sonia Coriani,            Technical Univ. of Denmark,   Denmark     (CC and RESPONS modules)
  Janusz Cukras,            University of Warsaw,         Poland      (MChD in RESPONS)
  Paal Dahle,               University of Oslo,           Norway      (Parallelization)
  Erik K. Dalskov,          UNI-C,                        Denmark     (SOPPA)
  Thomas Enevoldsen,        Univ. of Southern Denmark,    Denmark     (SOPPA)
  Janus J. Eriksen,         Aarhus University,            Denmark     (Polarizable embedding, TDA)
  Rasmus Faber,             Technical Univ. of Denmark,   Denmark     (Vib.avg. NMR w. SOPPA, parallel AO-SOPPA, CVS-CC and EOMCC)
  Tobias Fahleson,          KTH Stockholm,                Sweden      (Damped cubic response)
  Berta Fernandez,          U. of Santiago de Compostela, Spain       (Doublet spin, ESR in RESPONS)
  Lara Ferrighi,            Aarhus University,            Denmark     (PCM Cubic response)
  Heike Fliegl,             University of Oslo,           Norway      (CCSD(R12))
  Luca Frediani,            UiT The Arctic U. of Norway,  Norway      (PCM)
  Emmanuel Fromager,        Univ. Strasbourg,             France      (MC-srDFT)
  Bin Gao,                  UiT The Arctic U. of Norway,  Norway      (Gen1Int library)
  Andre S. P. Gomes,        CNRS/Universite de Lille,     France      (Frozen density embedding)
  Christof Haettig,         Ruhr-University Bochum,       Germany     (CC module)
  Kasper Hald,              Aarhus University,            Denmark     (CC module)
  Asger Halkier,            Aarhus University,            Denmark     (CC module)
  Frederik Beyer Hansen,    University of Copenhagen,     Denmark     (Parallel AO-SOPPA)
  Erik D. Hedegaard,        Univ. of Southern Denmark,    Denmark     (Polarizable embedding, QM/MM, and MC-srDFT)
  Hanne Heiberg,            University of Oslo,           Norway      (Geometry analysis, selected one-electron integrals)
  Trygve Helgaker,          University of Oslo,           Norway      (DALTON; ABACUS, ERI, DFT modules, London, and much more)
  Alf Christian Hennum,     University of Oslo,           Norway      (Parity violation)
  Hinne Hettema,            University of Auckland,       New Zealand (Quadratic response in RESPONS; SIRIUS supersymmetry)
  Eirik Hjertenaes,         NTNU,                         Norway      (Cholesky decomposition)
  Pi A. B. Haase,           University of Copenhagen,     Denmark     (Triplet AO-SOPPA)
  Maria Francesca Iozzi,    University of Oslo,           Norway      (RPA)
  Christoph Jacob           TU Braunschweig               Germany     (Frozen density embedding)
  Brano Jansik              Technical Univ. of Ostrava    Czech Rep.  (DFT cubic response)
  Hans Joergen Aa. Jensen,  Univ. of Southern Denmark,    Denmark     (DALTON; SIRIUS, RESPONS, ABACUS, MC-srDFT, and much more)
  Dan Jonsson,              UiT The Arctic U. of Norway,  Norway      (Cubic response in RESPONS module)
  Poul Joergensen,          Aarhus University,            Denmark     (RESPONS, ABACUS, and CC modules)
  Maciej Kaminski,          University of Warsaw,         Poland      (CPPh in RESPONS)
  Joanna Kauczor,           Linkoeping University,        Sweden      (Complex polarization propagator (CPP) module)
  Sheela Kirpekar,          Univ. of Southern Denmark,    Denmark     (Mass-velocity & Darwin integrals)
  Erik Kjellgren,           Univ. of Southern Denmark,    Denmark     (MC-srDFT)
  Wim Klopper,              KIT Karlsruhe,                Germany     (R12 code in CC, SIRIUS, and ABACUS modules)
  Stefan Knecht,            ETH Zurich,                   Switzerland (Parallel CI and MCSCF, MC-srDFT)
  Rika Kobayashi,           Australian National Univ.,    Australia   (DIIS in CC, London in MCSCF)
  Henrik Koch,              NTNU,                         Norway      (CC module, Cholesky decomposition)
  Jacob Kongsted,           Univ. of Southern Denmark,    Denmark     (Polarizable embedding, polarizable density embedding, QM/MM)
  Andrea Ligabue,           University of Modena,         Italy       (CTOCD, AOSOPPA)
  Nanna H. List             Univ. of Southern Denmark,    Denmark     (Polarizable embedding)
  Ola B. Lutnaes,           University of Oslo,           Norway      (DFT Hessian)
  Juan I. Melo,             University of Buenos Aires,   Argentina   (LRESC, Relativistic Effects on NMR Shieldings)
  Kurt V. Mikkelsen,        University of Copenhagen,     Denmark     (MC-SCRF and QM/MM)
  Rolf H. Myhre,            NTNU,                         Norway      (Subsystems and CC3)
  Christian Neiss,          Univ. Erlangen-Nuernberg,     Germany     (CCSD(R12))
  Christian B. Nielsen,     University of Copenhagen,     Denmark     (QM/MM)
  Patrick Norman,           KTH Stockholm,                Sweden      (Cubic response and complex frequency response in RESPONS)
  Jeppe Olsen,              Aarhus University,            Denmark     (SIRIUS CI/density modules)
  Jogvan Magnus H. Olsen,   Aarhus University,            Denmark     (Polarizable embedding and polarizable density embedding)
  Anders Osted,             Copenhagen University,        Denmark     (QM/MM)
  Martin J. Packer,         University of Sheffield,      UK          (SOPPA)
  Filip Pawlowski,          Kazimierz Wielki University,  Poland      (CC3)
  Morten N. Pedersen,       Univ. of Southern Denmark,    Denmark     (Polarizable embedding)
  Thomas B. Pedersen,       University of Oslo,           Norway      (Cholesky decomposition)
  Patricio F. Provasi,      University of Northeastern,   Argentina   (Analysis of coupling constants in localized orbitals)
  Peter Reinholdt,          Univ. of Southern Denmark,    Denmark     (Polarizable embedding and polarizable density embedding)
  Zilvinas Rinkevicius,     KTH Stockholm,                Sweden      (open-shell DFT, ESR)
  Elias Rudberg,            KTH Stockholm,                Sweden      (DFT grid and basis info)
  Torgeir A. Ruden,         University of Oslo,           Norway      (Numerical derivatives in ABACUS)
  Kenneth Ruud,             UiT The Arctic U. of Norway,  Norway      (DALTON; ABACUS magnetic properties and much more)
  Pawel Salek,              KTH Stockholm,                Sweden      (DALTON; DFT code)
  Claire C. M. Samson       University of Karlsruhe       Germany     (Boys localization, r12 integrals in ERI)
  Alfredo Sanchez de Meras, University of Valencia,       Spain       (CC module, Cholesky decomposition)
  Trond Saue,               Paul Sabatier University,     France      (direct Fock matrix construction)
  Stephan P. A. Sauer,      University of Copenhagen,     Denmark     (SOPPA(CCSD), SOPPA prop., AOSOPPA, vibrational g-factors)
  Bernd Schimmelpfennig,    Forschungszentrum Karlsruhe,  Germany     (AMFI module)
  Anna K. Schnack-Petersen, University of Copenhagen,     Denmark     (RPA(D) and HRPA(D) properties in AOSOPPA)
  Kristian Sneskov,         Aarhus University,            Denmark     (Polarizable embedding, QM/MM)
  Arnfinn H. Steindal,      UiT The Arctic U. of Norway,  Norway      (parallel QM/MM, polarizable embedding)
  Casper Steinmann,         Aalborg University,           Denmark     (QFIT, polarizable embedding)
  K. O. Sylvester-Hvid,     University of Copenhagen,     Denmark     (MC-SCRF)
  Peter R. Taylor,          VLSCI/Univ. of Melbourne,     Australia   (Symmetry handling ABACUS, integral transformation)
  Andrew M. Teale,          University of Nottingham,     England     (DFT-AC, DFT-D)
  David P. Tew,             University of Bristol,        England     (CCSD(R12))
  Julien Toulouse,          Sorbonne Univ.,               France      (MC-srDFT)
  Olav Vahtras,             KTH Stockholm,                Sweden      (Triplet response, spin-orbit, ESR, TDDFT, open-shell DFT)
  Lucas Visscher,           Vrije Universiteit Amsterdam, Netherlands (Frozen density embedding)
  David J. Wilson,          La Trobe University,          Australia   (DFT Hessian and DFT magnetizabilities)
  Hans Agren,               KTH Stockholm,                Sweden      (SIRIUS module, RESPONS, MC-SCRF solvation)
 --------------------------------------------------------------------------------

     Date and time (Linux)  : Thu Sep  7 21:32:29 2023
     Host name              : sn-mem                                  

 * Work memory size             :    64000000 =  488.28 megabytes.

 * Directories for basis set searches:
   1) /gpfs/projects/rjh/adrian/august_no_symmetry/dalton/hf/H2O/dipole
   2) /gpfs/projects/rjh/adrian/dalton/build/basis


Compilation information
-----------------------

 Who compiled             | ahurtado
 Host                     | sn-mem
 System                   | Linux-3.10.0-1160.24.1.el7.x86_64
 CMake generator          | Unix Makefiles
 Processor                | x86_64
 64-bit integers          | OFF
 MPI                      | ON
 Fortran compiler         | /gpfs/software/intel/oneAPI/2021_4/mpi/2021.4.0/bi
                          | n/mpif90
 Fortran compiler version | GNU Fortran (GCC) 11.2.0
 C compiler               | /gpfs/software/intel/oneAPI/2021_4/mpi/2021.4.0/bi
                          | n/mpicc
 C compiler version       | gcc (GCC) 11.2.0
 C++ compiler             | /gpfs/software/intel/oneAPI/2021_4/mpi/2021.4.0/bi
                          | n/mpicxx
 C++ compiler version     | unknown
 BLAS                     | /gpfs/software/intel/oneAPI/2021_4/mkl/2021.4.0/li
                          | b/intel64/libmkl_gf_lp64.so;/gpfs/software/intel/o
                          | neAPI/2021_4/mkl/2021.4.0/lib/intel64/libmkl_seque
                          | ntial.so;/gpfs/software/intel/oneAPI/2021_4/mkl/20
                          | 21.4.0/lib/intel64/libmkl_core.so;/usr/lib64/libpt
                          | hread.so;/usr/lib64/libm.so
 LAPACK                   | /gpfs/software/intel/oneAPI/2021_4/mkl/2021.4.0/li
                          | b/intel64/libmkl_lapack95_lp64.a;/gpfs/software/in
                          | tel/oneAPI/2021_4/mkl/2021.4.0/lib/intel64/libmkl_
                          | gf_lp64.so
 Static linking           | OFF
 Last Git revision        | 66052b3af5ea7225e31178bf9a8b031913c72190
 Git branch               | (HEAD detached at Dalton2020.0)
 Configuration time       | 2023-01-11 13:33:37.731835

 * MPI parallel run using 5 processes.


   Content of the .dal input file
 ----------------------------------

**DALTON INPUT
.RUN RESPONSE
.DIRECT
**WAVE FUNCTIONS
.HF
**PROPERTIES
**RESPONSE
*QUADRA
.DIPLEN
.FREQUENCIES
5
0.0 0.0198666875 0.039733375 0.0596000625 0.07946675
**END OF DALTON INPUT


   Content of the .mol file
 ----------------------------

BASIS
aug-cc-pCVTZ
blah
blah
Atomtype=2 Angstrom Charge=0 Nosymmmetry
Charge=8 Atoms=1
O_a 0.000000000000 0.000000000000 0.117299997610
Charge=1 Atoms=2
H_a 0.000000000000 0.757199998838 -0.469200001024
H_b 0.000000000000 -0.757199998838 -0.469200001024


       *******************************************************************
       *********** Output from DALTON general input processing ***********
       *******************************************************************

 --------------------------------------------------------------------------------
   Overall default print level:    0
   Print level for DALTON.STAT:    1

    Parallel calculation using MPI
    AO-direct calculation (in sections where implemented)
    HERMIT 1- and 2-electron integral sections will be executed
    "Old" integral transformation used (limited to max 255 basis functions)
    Wave function sections will be executed (SIRIUS module)
    Dynamic molecular response properties section will be executed (RESPONSE module)
 --------------------------------------------------------------------------------


   ****************************************************************************
   *************** Output of molecule and basis set information ***************
   ****************************************************************************


    The two title cards from your ".mol" input:
    ------------------------------------------------------------------------
 1: blah                                                                    
 2: blah                                                                    
    ------------------------------------------------------------------------

  Coordinates are entered in Angstrom and converted to atomic units.
          - Conversion factor : 1 bohr = 0.52917721 A

  Atomic type no.    1
  --------------------
  Nuclear charge:   8.00000
  Number of symmetry independent centers:    1
  Number of basis sets to read;    2
  Basis set file used for this atomic type with Z =   8 :
     "/gpfs/projects/rjh/adrian/dalton/build/basis/aug-cc-pCVTZ"

  Atomic type no.    2
  --------------------
  Nuclear charge:   1.00000
  Number of symmetry independent centers:    2
  Number of basis sets to read;    2
  Basis set file used for this atomic type with Z =   1 :
     "/gpfs/projects/rjh/adrian/dalton/build/basis/aug-cc-pCVTZ"


                         SYMGRP: Point group information
                         -------------------------------

@    Point group: C1 


                                 Isotopic Masses
                                 ---------------

                           O_a        15.994915
                           H_a         1.007825
                           H_b         1.007825

                       Total mass:    18.010565 amu
                       Natural abundance:  99.730 %

 Center-of-mass coordinates (a.u.):    0.000000    0.000000    0.097627
 Center-of-mass coordinates (Angs):    0.000000    0.000000    0.051662


  Atoms and basis sets
  --------------------

  Number of atom types :    2
  Total number of atoms:    3

  Basis set used is "aug-cc-pCVTZ" from the basis set library.

  label    atoms   charge   prim   cont     basis
  ----------------------------------------------------------------------
  O_          1    8.0000    71    59      [13s8p4d2f|7s6p4d2f]                               
  H_          2    1.0000    25    23      [6s3p2d|4s3p2d]                                    
  ----------------------------------------------------------------------
  total:      3   10.0000   121   105
  ----------------------------------------------------------------------
  Spherical harmonic basis used.

  Threshold for neglecting AO integrals:  1.00D-12


  Cartesian Coordinates (a.u.)
  ----------------------------

  Total number of coordinates:    9
  O_a     :     1  x   0.0000000000    2  y   0.0000000000    3  z   0.2216648699
  H_a     :     4  x   0.0000000000    5  y   1.4309006196    6  z  -0.8866594998
  H_b     :     7  x   0.0000000000    8  y  -1.4309006196    9  z  -0.8866594998


   Interatomic separations (in Angstrom):
   --------------------------------------

            O_a         H_a         H_b   
            ------      ------      ------
 O_a   :    0.000000
 H_a   :    0.957776    0.000000
 H_b   :    0.957776    1.514400    0.000000


  Max    interatomic separation is    1.5144 Angstrom (    2.8618 Bohr)
  between atoms    3 and    2, "H_b   " and "H_a   ".

  Min HX interatomic separation is    0.9578 Angstrom (    1.8099 Bohr)


  Bond distances (Angstrom):
  --------------------------

                  atom 1     atom 2       distance
                  ------     ------       --------
  bond distance:  H_a        O_a          0.957776
  bond distance:  H_b        O_a          0.957776


  Bond angles (degrees):
  ----------------------

                  atom 1     atom 2     atom 3         angle
                  ------     ------     ------         -----
  bond angle:     H_a        O_a        H_b          104.480




 Principal moments of inertia (u*A**2) and principal axes
 --------------------------------------------------------

   IA       0.615752          0.000000    1.000000    0.000000
   IB       1.155677          0.000000    0.000000    1.000000
   IC       1.771429          1.000000    0.000000    0.000000


 Rotational constants
 --------------------

@    The molecule is planar.

               A                   B                   C

         820751.0438         437301.3971         285294.6081 MHz
           27.377308           14.586804            9.516404 cm-1


@  Nuclear repulsion energy :    9.189533777587 Hartree


                     .---------------------------------------.
                     | Starting in Integral Section (HERMIT) |
                     `---------------------------------------'



 ***************************************************************************************
 ****************** Output from **INTEGRALS input processing (HERMIT) ******************
 ***************************************************************************************


 - Using defaults, no **INTEGRALS input found

 Default print level:        1

 Calculation of one-electron Hamiltonian integrals.

 Center of mass  (bohr):      0.000000000000      0.000000000000      0.097626894688
 Operator center (bohr):      0.000000000000      0.000000000000      0.000000000000
 Gauge origin    (bohr):      0.000000000000      0.000000000000      0.000000000000
 Dipole origin   (bohr):      0.000000000000      0.000000000000      0.000000000000


     ************************************************************************
     ************************** Output from HERINT **************************
     ************************************************************************



                      Nuclear contribution to dipole moments
                      --------------------------------------

                 au               Debye          C m (/(10**-30)

      x      0.00000000         0.00000000         0.00000000
      y      0.00000000         0.00000000         0.00000000
      z     -0.00000004        -0.00000010        -0.00000034


  Total CPU  time used in HERMIT:   0.11 seconds
  Total wall time used in HERMIT:   0.11 seconds


                        .----------------------------------.
                        | End of Integral Section (HERMIT) |
                        `----------------------------------'



                   .--------------------------------------------.
                   | Starting in Wave Function Section (SIRIUS) |
                   `--------------------------------------------'


 *** Output from Huckel module :

     Using EWMO model:          T
     Using EHT  model:          F
     Number of Huckel orbitals each symmetry:    7

 EWMO - Energy Weighted Maximum Overlap - is a Huckel type method,
        which normally is better than Extended Huckel Theory.
 Reference: Linderberg and Ohrn, Propagators in Quantum Chemistry (Wiley, 1973)

 Huckel EWMO eigenvalues for symmetry :  1
          -20.684959      -1.611341      -0.778168      -0.688462      -0.616200
           -0.232449      -0.168322

 **********************************************************************
 *SIRIUS* a direct, restricted step, second order MCSCF program       *
 **********************************************************************

 
     Date and time (Linux)  : Thu Sep  7 21:32:29 2023
     Host name              : sn-mem                                  

 Title lines from ".mol" input file:
     blah                                                                    
     blah                                                                    

 Print level on unit LUPRI =   2 is   0
 Print level on unit LUW4  =   2 is   5

@    Restricted, closed shell Hartree-Fock calculation.

@    Time-dependent Hartree-Fock calculation (random phase approximation).
 Fock matrices are calculated directly and in parallel without use of integrals on disk.

 Initial molecular orbitals are obtained according to
 ".MOSTART EWMO  " input option

     Wave function specification
     ============================
@    Wave function type        --- HF ---
@    Number of closed shell electrons          10
@    Number of electrons in active shells       0
@    Total charge of the molecule               0

@    Spin multiplicity and 2 M_S                1         0
@    Total number of symmetries                 1 (point group: C1 )
@    Reference state symmetry                   1 (irrep name : A  )

     Orbital specifications
     ======================
@    Abelian symmetry species          All |    1
@                                          |  A  
                                       --- |  ---
@    Occupied SCF orbitals               5 |    5
@    Secondary orbitals                100 |  100
@    Total number of orbitals          105 |  105
@    Number of basis functions         105 |  105

     Optimization information
     ========================
@    Number of configurations                 1
@    Number of orbital rotations            500
     ------------------------------------------
@    Total number of variables              501

     Maximum number of Fock   iterations      0
     Maximum number of DIIS   iterations     60
     Maximum number of QC-SCF iterations     60
     Threshold for SCF convergence     1.00D-05


 ***********************************************
 ***** DIIS acceleration of SCF iterations *****
 ***********************************************

 C1-DIIS algorithm; max error vectors =    8

 Iter      Total energy        Error norm    Delta(E)  DIIS dim.
 -----------------------------------------------------------------------------
   1  Screening settings (-IFTHRS, JTDIIS, DIFDEN, times)   -8    1    T  2.01D-01  2.01D-01
@  1    -75.8734720859        2.01432D+00   -7.59D+01    1
      Virial theorem: -V/T =      1.996635
@    MULPOP   O_a    -0.84; H_a     0.42; H_b     0.42; 
   1  Level shift: doubly occupied orbital energies shifted by -2.00D-01
 -----------------------------------------------------------------------------
   2  Screening settings (-IFTHRS, JTDIIS, DIFDEN, times)   -8    2    T  1.83D-01  1.83D-01
@  2    -76.0495932732        4.22398D-01   -1.76D-01    2
      Virial theorem: -V/T =      2.003495
@    MULPOP   O_a    -0.47; H_a     0.24; H_b     0.24; 
   2  Level shift: doubly occupied orbital energies shifted by -5.00D-02
 -----------------------------------------------------------------------------
   3  Screening settings (-IFTHRS, JTDIIS, DIFDEN, times)   -8    3    T  1.83D-01  1.84D-01
@  3    -76.0594340277        1.13173D-01   -9.84D-03    3
      Virial theorem: -V/T =      2.000083
@    MULPOP   O_a    -0.44; H_a     0.22; H_b     0.22; 
   3  Level shift: doubly occupied orbital energies shifted by -2.50D-02
 -----------------------------------------------------------------------------
   4  Screening settings (-IFTHRS, JTDIIS, DIFDEN, times)   -8    4    T  1.94D-01  1.94D-01
@  4    -76.0606172772        5.33152D-02   -1.18D-03    4
      Virial theorem: -V/T =      2.001893
@    MULPOP   O_a    -0.43; H_a     0.22; H_b     0.22; 
   4  Level shift: doubly occupied orbital energies shifted by -1.25D-02
 -----------------------------------------------------------------------------
   5  Screening settings (-IFTHRS, JTDIIS, DIFDEN, times)  -12    5    F  1.85D-01  1.85D-01
@  5    -76.0607728843        1.18207D-02   -1.56D-04    5
      Virial theorem: -V/T =      2.000921
@    MULPOP   O_a    -0.44; H_a     0.22; H_b     0.22; 
 -----------------------------------------------------------------------------
   6  Screening settings (-IFTHRS, JTDIIS, DIFDEN, times)  -12    6    T  1.85D-01  1.84D-01
@  6    -76.0607964029        2.79541D-03   -2.35D-05    6
      Virial theorem: -V/T =      2.001029
@    MULPOP   O_a    -0.45; H_a     0.22; H_b     0.22; 
 -----------------------------------------------------------------------------
   7  Screening settings (-IFTHRS, JTDIIS, DIFDEN, times)  -12    7    T  1.94D-01  1.94D-01
@  7    -76.0607979176        4.87396D-04   -1.51D-06    7
      Virial theorem: -V/T =      2.001047
@    MULPOP   O_a    -0.45; H_a     0.22; H_b     0.22; 
 -----------------------------------------------------------------------------
   8  Screening settings (-IFTHRS, JTDIIS, DIFDEN, times)  -12    8    T  1.90D-01  1.90D-01
@  8    -76.0607979556        6.80161D-05   -3.80D-08    8
      Virial theorem: -V/T =      2.001051
@    MULPOP   O_a    -0.45; H_a     0.22; H_b     0.22; 
 -----------------------------------------------------------------------------
   9  Screening settings (-IFTHRS, JTDIIS, DIFDEN, times)  -12    9    T  1.92D-01  1.92D-01
@  9    -76.0607979563        1.08996D-05   -7.03D-10    8
      Virial theorem: -V/T =      2.001051
@    MULPOP   O_a    -0.45; H_a     0.22; H_b     0.22; 
 -----------------------------------------------------------------------------
  10  Screening settings (-IFTHRS, JTDIIS, DIFDEN, times)  -12   10    T  1.82D-01  1.83D-01
@ 10    -76.0607979563        2.34595D-06   -1.66D-11    8

@ *** DIIS converged in  10 iterations !
@     Converged SCF energy, gradient:    -76.060797956312    2.35D-06
    - total time used in SIRFCK :              0.00 seconds


 *** SCF orbital energy analysis ***

 Only the 20 lowest virtual orbital energies printed in each symmetry.

 Number of electrons :   10
 Orbital occupations :    5

 Sym       Hartree-Fock orbital energies

1 A     -20.56626719    -1.35327318    -0.71751757    -0.58502732    -0.51038692
          0.02943465     0.04767708     0.13585303     0.15852119     0.17514022
          0.18291754     0.22755890     0.24490183     0.26528767     0.30053401
          0.31028989     0.36585280     0.43787247     0.46638516     0.59959800
          0.65672498     0.70679778     0.72229874     0.73151828     0.83074073

    E(LUMO) :     0.02943465 au (symmetry 1)
  - E(HOMO) :    -0.51038692 au (symmetry 1)
  ------------------------------------------
    gap     :     0.53982157 au

 --- Writing SIRIFC interface file

 CPU and wall time for SCF :       1.976       1.983


                       .-----------------------------------.
                       | --- Final results from SIRIUS --- |
                       `-----------------------------------'


@    Spin multiplicity:           1
@    Spatial symmetry:            1 ( irrep  A   in C1  )
@    Total charge of molecule:    0

@    Final HF energy:             -76.060797956312                 
@    Nuclear repulsion:             9.189533777587
@    Electronic energy:           -85.250331733899

@    Final gradient norm:           0.000002345946

 
     Date and time (Linux)  : Thu Sep  7 21:32:31 2023
     Host name              : sn-mem                                  

File label for MO orbitals:   7Sep23   FOCKDIIS

 (Only coefficients > 0.0100 are printed.)

 Molecular orbitals for symmetry species 1  (A  )
 ------------------------------------------------

    Orbital         1        2        3        4        5        6        7
   1 O_a :1s    -0.9980   0.0131   0.0000  -0.0080  -0.0000   0.0007   0.0000
   2 O_a :1s     0.0069  -0.8444   0.0000  -0.3266  -0.0000  -0.0985   0.0000
   4 O_a :1s    -0.0046   0.0275   0.0000  -0.1924   0.0000  -0.7843  -0.0000
   7 O_a :1s    -0.0015  -0.0363   0.0000  -0.0762  -0.0000  -2.4069  -0.0000
   8 O_a :2px   -0.0000  -0.0000   0.0000  -0.0000   0.9118  -0.0000   0.0000
   9 O_a :2py   -0.0000   0.0000  -0.7333  -0.0000   0.0000  -0.0000   0.0714
  10 O_a :2pz    0.0034   0.1162   0.0000  -0.8050  -0.0000   0.0714  -0.0000
  12 O_a :2py    0.0000  -0.0000   0.0194   0.0000   0.0000   0.0000   0.0429
  13 O_a :2pz   -0.0030   0.0026  -0.0000   0.0120   0.0000   0.0387   0.0000
  14 O_a :2px    0.0000   0.0000  -0.0000   0.0000   0.0191   0.0000  -0.0000
  15 O_a :2py    0.0000   0.0000   0.0875  -0.0000   0.0000  -0.0000   0.5228
  16 O_a :2pz    0.0010  -0.0178  -0.0000   0.0491  -0.0000   0.3298  -0.0000
  23 O_a :2px   -0.0000  -0.0000   0.0000  -0.0000   0.0333  -0.0000   0.0000
  24 O_a :2py    0.0000   0.0000  -0.0088  -0.0000   0.0000  -0.0000   1.1394
  25 O_a :2pz    0.0004   0.0037   0.0000  -0.0148  -0.0000   0.2219  -0.0000
  32 O_a :3d1-  -0.0000   0.0000   0.0125  -0.0000   0.0000   0.0000   0.0000
  37 O_a :3d1-  -0.0000   0.0000   0.0241  -0.0000  -0.0000   0.0000  -0.0317
  38 O_a :3d0   -0.0001  -0.0035  -0.0000   0.0164   0.0000  -0.0068   0.0000
  39 O_a :3d1+   0.0000   0.0000  -0.0000   0.0000  -0.0146   0.0000  -0.0000
  40 O_a :3d2+  -0.0004   0.0075  -0.0000  -0.0014  -0.0000   0.0238   0.0000
  42 O_a :3d1-  -0.0000   0.0000   0.0009   0.0000  -0.0000   0.0000  -0.1293
  45 O_a :3d2+   0.0007  -0.0009  -0.0000   0.0068  -0.0000   0.0572   0.0000
  58 O_a :4f2+  -0.0002  -0.0016   0.0000   0.0006   0.0000  -0.0115  -0.0000
  60 H_a :1s    -0.0017  -0.3711  -0.5895   0.3571   0.0000   0.0077   0.0268
  61 H_a :1s     0.0015   0.1119   0.0773  -0.0084  -0.0000   0.2471  -0.2802
  62 H_a :1s     0.0016   0.1568   0.1933  -0.0764  -0.0000   0.9606  -1.3974
  63 H_a :1s     0.0000   0.0014   0.0052   0.0016   0.0000   0.8588  -3.4283
  64 H_a :2px   -0.0000  -0.0000   0.0000  -0.0000   0.0107  -0.0000   0.0000
  65 H_a :2py    0.0002   0.0112   0.0094  -0.0097  -0.0000   0.0019   0.0010
  66 H_a :2pz   -0.0001  -0.0078  -0.0126  -0.0015   0.0000  -0.0002   0.0010
  67 H_a :2px    0.0000   0.0000  -0.0000   0.0000   0.0295   0.0000  -0.0000
  68 H_a :2py    0.0005   0.0106   0.0184  -0.0319   0.0000  -0.0817   0.0689
  69 H_a :2pz   -0.0008  -0.0082  -0.0273   0.0016  -0.0000   0.0614  -0.0729
  70 H_a :2px   -0.0000  -0.0000   0.0000  -0.0000   0.0185  -0.0000   0.0000
  71 H_a :2py    0.0001  -0.0039  -0.0091  -0.0046  -0.0000  -0.2208   0.2802
  72 H_a :2pz   -0.0001   0.0032   0.0004  -0.0083   0.0000   0.1993  -0.3255
  79 H_a :3d1-   0.0006   0.0009   0.0024   0.0010  -0.0000  -0.0273   0.0332
  80 H_a :3d0   -0.0001  -0.0002  -0.0023  -0.0016   0.0000   0.0029  -0.0152
  82 H_a :3d2+   0.0003   0.0004  -0.0012  -0.0027  -0.0000  -0.0202   0.0030
  83 H_b :1s    -0.0017  -0.3711   0.5895   0.3571   0.0000   0.0077  -0.0268
  84 H_b :1s     0.0015   0.1119  -0.0773  -0.0084  -0.0000   0.2471   0.2802
  85 H_b :1s     0.0016   0.1568  -0.1933  -0.0764  -0.0000   0.9606   1.3974
  86 H_b :1s     0.0000   0.0014  -0.0052   0.0016   0.0000   0.8588   3.4283
  87 H_b :2px   -0.0000  -0.0000   0.0000  -0.0000   0.0107  -0.0000   0.0000
  88 H_b :2py   -0.0002  -0.0112   0.0094   0.0097   0.0000  -0.0019   0.0010
  89 H_b :2pz   -0.0001  -0.0078   0.0126  -0.0015   0.0000  -0.0002  -0.0010
  90 H_b :2px    0.0000   0.0000  -0.0000   0.0000   0.0295   0.0000  -0.0000
  91 H_b :2py   -0.0005  -0.0106   0.0184   0.0319  -0.0000   0.0817   0.0689
  92 H_b :2pz   -0.0008  -0.0082   0.0273   0.0016   0.0000   0.0614   0.0729
  93 H_b :2px   -0.0000  -0.0000   0.0000  -0.0000   0.0185  -0.0000   0.0000
  94 H_b :2py   -0.0001   0.0039  -0.0091   0.0046   0.0000   0.2208   0.2802
  95 H_b :2pz   -0.0001   0.0032  -0.0004  -0.0083   0.0000   0.1993   0.3255
 102 H_b :3d1-  -0.0006  -0.0009   0.0024  -0.0010   0.0000   0.0273   0.0332
 103 H_b :3d0   -0.0001  -0.0002   0.0023  -0.0016   0.0000   0.0029   0.0152
 105 H_b :3d2+   0.0003   0.0004   0.0012  -0.0027  -0.0000  -0.0202  -0.0030

    Orbital         8        9       10       11       12       13       14
   1 O_a :1s    -0.0223   0.0000   0.0035   0.0000   0.0000  -0.0306  -0.0000
   2 O_a :1s    -0.1648   0.0000  -0.2120   0.0000   0.0000  -0.1153   0.0000
   3 O_a :1s     0.0218   0.0000  -0.0290  -0.0000  -0.0000   0.0328   0.0000
   4 O_a :1s     1.6743  -0.0000   1.7783  -0.0000  -0.0000   0.2427  -0.0000
   5 O_a :1s    -0.0099  -0.0000   0.0052   0.0000   0.0000  -0.0133  -0.0000
   7 O_a :1s     6.7494   0.0000   4.0924  -0.0000  -0.0000   2.7419   0.0000
   8 O_a :2px   -0.0000  -0.2291  -0.0000  -0.0000  -0.0000   0.0000   0.0000
   9 O_a :2py    0.0000  -0.0000   0.0000  -0.2503  -0.1772  -0.0000   0.0000
  10 O_a :2pz    0.2357   0.0000   0.0530  -0.0000   0.0000  -0.0048   0.0000
  11 O_a :2px    0.0000   0.0336   0.0000   0.0000   0.0000  -0.0000  -0.0000
  12 O_a :2py   -0.0000  -0.0000  -0.0000   0.1346   0.0617   0.0000  -0.0000
  13 O_a :2pz   -0.0766  -0.0000  -0.0968   0.0000  -0.0000   0.0131  -0.0000
  14 O_a :2px    0.0000   0.1259   0.0000   0.0000   0.0000  -0.0000  -0.0000
  15 O_a :2py    0.0000  -0.0000   0.0000   1.7359  -0.7605  -0.0000  -0.0000
  16 O_a :2pz   -0.5299   0.0000  -0.5857   0.0000  -0.0000   0.7479  -0.0000
  23 O_a :2px   -0.0000   1.8297  -0.0000  -0.0000  -0.0000   0.0000  -0.0000
  24 O_a :2py    0.0000  -0.0000   0.0000   3.6431  -1.6926  -0.0000   0.0000
  25 O_a :2pz   -2.0680   0.0000   0.9142   0.0000  -0.0000   0.5624  -0.0000
  36 O_a :3d2-  -0.0000  -0.0000   0.0000  -0.0000  -0.0000  -0.0000   0.0142
  37 O_a :3d1-  -0.0000   0.0000   0.0000  -0.0935  -0.0196   0.0000   0.0000
  38 O_a :3d0   -0.0078  -0.0000   0.0171  -0.0000   0.0000  -0.0355  -0.0000
  39 O_a :3d1+   0.0000   0.0279   0.0000   0.0000   0.0000  -0.0000   0.0000
  40 O_a :3d2+  -0.0183   0.0000  -0.0757   0.0000   0.0000  -0.0118   0.0000
  41 O_a :3d2-  -0.0000   0.0000   0.0000  -0.0000   0.0000  -0.0000   0.6977
  42 O_a :3d1-  -0.0000   0.0000  -0.0000  -0.4702   0.7004   0.0000   0.0000
  43 O_a :3d0    0.0920  -0.0000  -0.1232  -0.0000   0.0000  -0.6315  -0.0000
  44 O_a :3d1+  -0.0000  -0.2066  -0.0000  -0.0000  -0.0000   0.0000   0.0000
  45 O_a :3d2+  -0.0711   0.0000  -0.0975  -0.0000   0.0000  -0.5416   0.0000
  47 O_a :4f2-  -0.0000  -0.0000  -0.0000  -0.0000  -0.0000   0.0000   0.0118
  53 O_a :4f3-  -0.0000   0.0000   0.0000  -0.0298   0.0273   0.0000   0.0000
  54 O_a :4f2-   0.0000  -0.0000  -0.0000   0.0000   0.0000   0.0000  -0.0977
  55 O_a :4f1-  -0.0000  -0.0000   0.0000   0.0139  -0.0545  -0.0000  -0.0000
  56 O_a :4f0   -0.0034  -0.0000   0.0194   0.0000  -0.0000   0.0651  -0.0000
  58 O_a :4f2+  -0.0001  -0.0000   0.0240   0.0000   0.0000   0.0317  -0.0000
  59 O_a :4f3+   0.0000  -0.0114   0.0000   0.0000   0.0000  -0.0000   0.0000
  60 H_a :1s    -0.0019  -0.0000   0.1266  -0.0010   0.1688  -0.1399  -0.0000
  61 H_a :1s    -0.2657   0.0000  -0.5801  -0.9407   0.5884  -0.0969   0.0000
  62 H_a :1s    -3.2421   0.0000  -1.2913  -4.9205  -0.1045  -1.4036  -0.0000
  63 H_a :1s    -0.7321  -0.0000  -0.7028  -3.3592   0.0642  -0.0948  -0.0000
  65 H_a :2py   -0.0002   0.0000   0.0135   0.0122   0.0007   0.0032   0.0000
  67 H_a :2px    0.0000  -0.0411   0.0000   0.0000   0.0000  -0.0000  -0.2834
  68 H_a :2py    0.2096  -0.0000   0.1986   0.2544   0.0041  -0.1809   0.0000
  69 H_a :2pz   -0.1295   0.0000  -0.1920  -0.2642  -0.0290  -0.2740  -0.0000
  70 H_a :2px   -0.0000  -0.5707  -0.0000  -0.0000  -0.0000   0.0000  -1.7964
  71 H_a :2py    0.7670   0.0000   0.7974   1.1181   1.3036  -0.8899   0.0000
  72 H_a :2pz   -0.4549  -0.0000  -0.9082  -1.2096  -0.8018  -1.0654  -0.0000
  74 H_a :3d1-   0.0081   0.0000   0.0158   0.0180   0.0032   0.0066   0.0000
  77 H_a :3d2+   0.0072  -0.0000   0.0053   0.0134  -0.0017  -0.0093   0.0000
  78 H_a :3d2-  -0.0000   0.0698  -0.0000  -0.0000  -0.0000   0.0000   0.2495
  79 H_a :3d1-   0.0784   0.0000   0.1133   0.0965   0.1540   0.0166   0.0000
  80 H_a :3d0    0.0173  -0.0000  -0.0243  -0.0487  -0.0513  -0.2544  -0.0000
  81 H_a :3d1+   0.0000  -0.0434   0.0000   0.0000   0.0000  -0.0000  -0.2225
  82 H_a :3d2+   0.0558   0.0000   0.0669  -0.0100   0.1571  -0.1407   0.0000
  83 H_b :1s    -0.0019  -0.0000   0.1266   0.0010  -0.1688  -0.1399  -0.0000
  84 H_b :1s    -0.2657   0.0000  -0.5801   0.9407  -0.5884  -0.0969   0.0000
  85 H_b :1s    -3.2421   0.0000  -1.2913   4.9205   0.1045  -1.4036   0.0000
  86 H_b :1s    -0.7321  -0.0000  -0.7028   3.3592  -0.0642  -0.0948   0.0000
  88 H_b :2py    0.0002  -0.0000  -0.0135   0.0122   0.0007  -0.0032   0.0000
  90 H_b :2px    0.0000  -0.0411   0.0000   0.0000   0.0000  -0.0000   0.2834
  91 H_b :2py   -0.2096   0.0000  -0.1986   0.2544   0.0041   0.1809   0.0000
  92 H_b :2pz   -0.1295  -0.0000  -0.1920   0.2642   0.0290  -0.2740  -0.0000
  93 H_b :2px   -0.0000  -0.5707  -0.0000  -0.0000  -0.0000   0.0000   1.7964
  94 H_b :2py   -0.7670  -0.0000  -0.7974   1.1181   1.3036   0.8899  -0.0000
  95 H_b :2pz   -0.4549  -0.0000  -0.9082   1.2096   0.8018  -1.0654  -0.0000
  97 H_b :3d1-  -0.0081  -0.0000  -0.0158   0.0180   0.0032  -0.0066  -0.0000
 100 H_b :3d2+   0.0072  -0.0000   0.0053  -0.0134   0.0017  -0.0093  -0.0000
 101 H_b :3d2-   0.0000  -0.0698   0.0000   0.0000   0.0000  -0.0000   0.2495
 102 H_b :3d1-  -0.0784  -0.0000  -0.1133   0.0965   0.1540  -0.0166  -0.0000
 103 H_b :3d0    0.0173  -0.0000  -0.0243   0.0487   0.0513  -0.2544   0.0000
 104 H_b :3d1+   0.0000  -0.0434   0.0000   0.0000   0.0000  -0.0000   0.2225
 105 H_b :3d2+   0.0558   0.0000   0.0669   0.0100  -0.1571  -0.1407   0.0000

    Orbital        15
   8 O_a :2px    0.2264
  11 O_a :2px   -0.0595
  14 O_a :2px    1.8815
  23 O_a :2px    1.9325
  39 O_a :3d1+  -0.0340
  44 O_a :3d1+  -0.5697
  57 O_a :4f1+   0.0432
  59 O_a :4f3+  -0.0884
  67 H_a :2px   -0.3415
  70 H_a :2px   -1.9077
  78 H_a :3d2-   0.3107
  81 H_a :3d1+  -0.1927
  90 H_b :2px   -0.3415
  93 H_b :2px   -1.9077
 101 H_b :3d2-  -0.3107
 104 H_b :3d1+  -0.1927

  Total CPU  time used in SIRIUS :   2.04 seconds
  Total wall time used in SIRIUS :   2.05 seconds

 
     Date and time (Linux)  : Thu Sep  7 21:32:31 2023
     Host name              : sn-mem                                  


                     .---------------------------------------.
                     | End of Wave Function Section (SIRIUS) |
                     `---------------------------------------'



                 .------------------------------------------------.
                 | Starting in Dynamic Property Section (RESPONS) |
                 `------------------------------------------------'


 ----------------------------------------------------------------------------------------
  RESPONSE  -  an MCSCF, MC-srDFT, DFT, SOPPA and SOPPA-srDFT response property program
 ----------------------------------------------------------------------------------------


 -------- OUTPUT FROM RESPONSE INPUT PROCESSING --------




 Quadratic Response calculation
 ------------------------------

 First hyperpolarizability calculation : HYPCAL= T

 Spin of operator A , ISPINA=    0
 Spin of operator B , ISPINB=    0
 Spin of operator C , ISPINC=    0

  5 B-frequencies  0.000000D+00  1.986669D-02  3.973338D-02  5.960006D-02  7.946675D-02
  5 C-frequencies  0.000000D+00  1.986669D-02  3.973338D-02  5.960006D-02  7.946675D-02


 Print level                                    : IPRHYP =   2
 Maximum number of iterations in lin.rsp. solver: MAXITL =  60
 Threshold for convergence of linear resp. eq.s : THCLR  = 1.000D-03
 Maximum iterations in optimal orbital algorithm: MAXITO =   5
 Direct one-index transformation                : DIROIT = T

    3 A OPERATORS OF SYMMETRY NO:    1 AND LABELS:

          XDIPLEN 
          YDIPLEN 
          ZDIPLEN 

    3 B OPERATORS OF SYMMETRY NO:    1 AND LABELS:

          XDIPLEN 
          YDIPLEN 
          ZDIPLEN 

    3 C OPERATORS OF SYMMETRY NO:    1 AND LABELS:

          XDIPLEN 
          YDIPLEN 
          ZDIPLEN 


   SCF energy         :      -76.060797956312356
 -- inactive part     :      -85.250331733899202
 -- nuclear repulsion :        9.189533777586849


                     ***************************************
                     *** RHF response calculation (TDHF) ***
                     ***************************************



 Linear response calculations for quadratic response
 - singlet property operator of symmetry    1  ( A  )


 Perturbation symmetry.     KSYMOP:           1
 Perturbation spin symmetry.TRPLET:           F
 Orbital variables.         KZWOPT:         500
 Configuration variables.   KZCONF:           0
 Total number of variables. KZVAR :         500


 QRLRVE -- linear response calculation for symmetry  1  ( A  )
 QRLRVE -- operator label : XDIPLEN 
 QRLRVE -- operator spin  :   0
 QRLRVE -- frequencies :  0.000000  0.019867  0.039733  0.059600  0.079467
                          0.099333  0.119200  0.139067  0.158934



 ---  SOLVING SETS OF LINEAR EQUATIONS FOR LINEAR RESPONSE PROPERTIES ---

 Operator symmetry = 1  ( A  ); triplet =   F


 ** RSPCTL MICROITERATION NUMBER    1

       No.  Residual tot.,    conf., and orb.    Bnorm      Frequency 
      ----------------------------------------------------------------
         1    7.01581D-01  0.00D+00  7.02D-01  2.31D+00    0.00000D+00
         2    7.02590D-01  0.00D+00  7.03D-01  2.32D+00    1.98667D-02
         3    7.05661D-01  0.00D+00  7.06D-01  2.34D+00    3.97334D-02
         4    7.10932D-01  0.00D+00  7.11D-01  2.37D+00    5.96001D-02
         5    7.18651D-01  0.00D+00  7.19D-01  2.42D+00    7.94668D-02
         6    7.29210D-01  0.00D+00  7.29D-01  2.49D+00    9.93334D-02
         7    7.43203D-01  0.00D+00  7.43D-01  2.57D+00    1.19200D-01
         8    7.61520D-01  0.00D+00  7.62D-01  2.69D+00    1.39067D-01
         9    7.85521D-01  0.00D+00  7.86D-01  2.83D+00    1.58934D-01

 ** RSPCTL MICROITERATION NUMBER    2

       No.  Residual tot.,    conf., and orb.    Bnorm      Frequency 
      ----------------------------------------------------------------
         1    5.55918D-02  0.00D+00  5.56D-02  2.39D+00    0.00000D+00
         2    5.58392D-02  0.00D+00  5.58D-02  2.40D+00    1.98667D-02
         3    5.65991D-02  0.00D+00  5.66D-02  2.42D+00    3.97334D-02
         4    5.79264D-02  0.00D+00  5.79D-02  2.46D+00    5.96001D-02
         5    5.99212D-02  0.00D+00  5.99D-02  2.52D+00    7.94668D-02
         6    6.27438D-02  0.00D+00  6.27D-02  2.59D+00    9.93334D-02
         7    6.66405D-02  0.00D+00  6.66D-02  2.70D+00    1.19200D-01
         8    7.19890D-02  0.00D+00  7.20D-02  2.83D+00    1.39067D-01
         9    7.93772D-02  0.00D+00  7.94D-02  3.01D+00    1.58934D-01

 ** RSPCTL MICROITERATION NUMBER    3

       No.  Residual tot.,    conf., and orb.    Bnorm      Frequency 
      ----------------------------------------------------------------
         1    3.81259D-03  0.00D+00  3.81D-03  2.39D+00    0.00000D+00
         2    3.85045D-03  0.00D+00  3.85D-03  2.40D+00    1.98667D-02
         3    3.96614D-03  0.00D+00  3.97D-03  2.42D+00    3.97334D-02
         4    4.16617D-03  0.00D+00  4.17D-03  2.46D+00    5.96001D-02
         5    4.46249D-03  0.00D+00  4.46D-03  2.52D+00    7.94668D-02
         6    4.87426D-03  0.00D+00  4.87D-03  2.59D+00    9.93334D-02
         7    5.43101D-03  0.00D+00  5.43D-03  2.70D+00    1.19200D-01
         8    6.17818D-03  0.00D+00  6.18D-03  2.84D+00    1.39067D-01
         9    7.18693D-03  0.00D+00  7.19D-03  3.02D+00    1.58934D-01

 ** RSPCTL MICROITERATION NUMBER    4

       No.  Residual tot.,    conf., and orb.    Bnorm      Frequency 
      ----------------------------------------------------------------
         1    3.46403D-04  0.00D+00  3.46D-04  2.39D+00    0.00000D+00
         2    3.52763D-04  0.00D+00  3.53D-04  2.40D+00    1.98667D-02
         3    3.72071D-04  0.00D+00  3.72D-04  2.42D+00    3.97334D-02
         4    4.05113D-04  0.00D+00  4.05D-04  2.46D+00    5.96001D-02
         5    4.53500D-04  0.00D+00  4.53D-04  2.52D+00    7.94668D-02
         6    5.20106D-04  0.00D+00  5.20D-04  2.59D+00    9.93334D-02
         7    6.09721D-04  0.00D+00  6.10D-04  2.70D+00    1.19200D-01
         8    7.30116D-04  0.00D+00  7.30D-04  2.84D+00    1.39067D-01
         9    8.93912D-04  0.00D+00  8.94D-04  3.02D+00    1.58934D-01

 *** THE REQUESTED    9 SOLUTION VECTORS CONVERGED

 Convergence of RSP solution vectors, threshold = 1.00D-03
 ---------------------------------------------------------------
 (dimension of paired reduced space:   72)
 RSP solution vector no.    1; norm of residual   1.45D-04
 RSP solution vector no.    2; norm of residual   1.47D-04
 RSP solution vector no.    3; norm of residual   1.54D-04
 RSP solution vector no.    4; norm of residual   1.65D-04
 RSP solution vector no.    5; norm of residual   1.80D-04
 RSP solution vector no.    6; norm of residual   2.00D-04
 RSP solution vector no.    7; norm of residual   2.26D-04
 RSP solution vector no.    8; norm of residual   2.57D-04
 RSP solution vector no.    9; norm of residual   2.96D-04

 *** RSPCTL MICROITERATIONS CONVERGED

@ QRLRVE: SINGLET SOLUTION FOR SYMMETRY    1  ( A  )    LABEL   XDIPLEN     FREQUENCY   0.000000D+00

@ QRLRVE:  << XDIPLEN  ; XDIPLEN  >> (   0.00000):     7.72301341739    

@ QRLRVE:  << YDIPLEN  ; XDIPLEN  >> (   0.00000):    4.724696290539E-16

@ QRLRVE:  << ZDIPLEN  ; XDIPLEN  >> (   0.00000):   -5.677467104707E-16

@ QRLRVE: SINGLET SOLUTION FOR SYMMETRY    1  ( A  )    LABEL   XDIPLEN     FREQUENCY   0.198667D-01

@ QRLRVE:  << XDIPLEN  ; XDIPLEN  >> (   0.01987):     7.73286926571    

@ QRLRVE:  << YDIPLEN  ; XDIPLEN  >> (   0.01987):    4.745173119221E-16

@ QRLRVE:  << ZDIPLEN  ; XDIPLEN  >> (   0.01987):   -5.707025904794E-16

@ QRLRVE: SINGLET SOLUTION FOR SYMMETRY    1  ( A  )    LABEL   XDIPLEN     FREQUENCY   0.397334D-01

@ QRLRVE:  << XDIPLEN  ; XDIPLEN  >> (   0.03973):     7.76275032254    

@ QRLRVE:  << YDIPLEN  ; XDIPLEN  >> (   0.03973):    4.807614538898E-16

@ QRLRVE:  << ZDIPLEN  ; XDIPLEN  >> (   0.03973):   -5.797844511907E-16

@ QRLRVE: SINGLET SOLUTION FOR SYMMETRY    1  ( A  )    LABEL   XDIPLEN     FREQUENCY   0.596001D-01

@ QRLRVE:  << XDIPLEN  ; XDIPLEN  >> (   0.05960):     7.81363084882    

@ QRLRVE:  << YDIPLEN  ; XDIPLEN  >> (   0.05960):    4.915178184534E-16

@ QRLRVE:  << ZDIPLEN  ; XDIPLEN  >> (   0.05960):   -5.956671213055E-16

@ QRLRVE: SINGLET SOLUTION FOR SYMMETRY    1  ( A  )    LABEL   XDIPLEN     FREQUENCY   0.794668D-01

@ QRLRVE:  << XDIPLEN  ; XDIPLEN  >> (   0.07947):     7.88725461381    

@ QRLRVE:  << YDIPLEN  ; XDIPLEN  >> (   0.07947):    5.073572242626E-16

@ QRLRVE:  << ZDIPLEN  ; XDIPLEN  >> (   0.07947):   -6.195907458074E-16

@ QRLRVE: SINGLET SOLUTION FOR SYMMETRY    1  ( A  )    LABEL   XDIPLEN     FREQUENCY   0.993334D-01

@ QRLRVE:  << XDIPLEN  ; XDIPLEN  >> (   0.09933):     7.98634435578    

@ QRLRVE:  << YDIPLEN  ; XDIPLEN  >> (   0.09933):    5.291837833958E-16

@ QRLRVE:  << ZDIPLEN  ; XDIPLEN  >> (   0.09933):   -6.535659620775E-16

@ QRLRVE: SINGLET SOLUTION FOR SYMMETRY    1  ( A  )    LABEL   XDIPLEN     FREQUENCY   0.119200D+00

@ QRLRVE:  << XDIPLEN  ; XDIPLEN  >> (   0.11920):     8.11496619569    

@ QRLRVE:  << YDIPLEN  ; XDIPLEN  >> (   0.11920):    5.583720924209E-16

@ QRLRVE:  << ZDIPLEN  ; XDIPLEN  >> (   0.11920):   -7.007390874987E-16

@ QRLRVE: SINGLET SOLUTION FOR SYMMETRY    1  ( A  )    LABEL   XDIPLEN     FREQUENCY   0.139067D+00

@ QRLRVE:  << XDIPLEN  ; XDIPLEN  >> (   0.13907):     8.27915667877    

@ QRLRVE:  << YDIPLEN  ; XDIPLEN  >> (   0.13907):    5.970054127966E-16

@ QRLRVE:  << ZDIPLEN  ; XDIPLEN  >> (   0.13907):   -7.660367183741E-16

@ QRLRVE: SINGLET SOLUTION FOR SYMMETRY    1  ( A  )    LABEL   XDIPLEN     FREQUENCY   0.158934D+00

@ QRLRVE:  << XDIPLEN  ; XDIPLEN  >> (   0.15893):     8.48803100073    

@ QRLRVE:  << YDIPLEN  ; XDIPLEN  >> (   0.15893):    6.483004977996E-16

@ QRLRVE:  << ZDIPLEN  ; XDIPLEN  >> (   0.15893):   -8.573345067624E-16


 QRLRVE -- linear response calculation for symmetry  1  ( A  )
 QRLRVE -- operator label : YDIPLEN 
 QRLRVE -- operator spin  :   0
 QRLRVE -- frequencies :  0.000000  0.019867  0.039733  0.059600  0.079467
                          0.099333  0.119200  0.139067  0.158934



 ---  SOLVING SETS OF LINEAR EQUATIONS FOR LINEAR RESPONSE PROPERTIES ---

 Operator symmetry = 1  ( A  ); triplet =   F

RSPORT:    1 out of    9 new trial vectors linear dependent

 ** RSPCTL MICROITERATION NUMBER    1

       No.  Residual tot.,    conf., and orb.    Bnorm      Frequency 
      ----------------------------------------------------------------
         1    8.76780D-01  0.00D+00  8.77D-01  2.33D+00    0.00000D+00
         2    8.77439D-01  0.00D+00  8.77D-01  2.34D+00    1.98667D-02
         3    8.79423D-01  0.00D+00  8.79D-01  2.35D+00    3.97334D-02
         4    8.82760D-01  0.00D+00  8.83D-01  2.37D+00    5.96001D-02
         5    8.87492D-01  0.00D+00  8.87D-01  2.40D+00    7.94668D-02
         6    8.93684D-01  0.00D+00  8.94D-01  2.43D+00    9.93334D-02
         7    9.01423D-01  0.00D+00  9.01D-01  2.48D+00    1.19200D-01
         8    9.10822D-01  0.00D+00  9.11D-01  2.53D+00    1.39067D-01
         9    9.22023D-01  0.00D+00  9.22D-01  2.60D+00    1.58934D-01

 ** RSPCTL MICROITERATION NUMBER    2

       No.  Residual tot.,    conf., and orb.    Bnorm      Frequency 
      ----------------------------------------------------------------
         1    8.05613D-02  0.00D+00  8.06D-02  2.42D+00    0.00000D+00
         2    8.07321D-02  0.00D+00  8.07D-02  2.42D+00    1.98667D-02
         3    8.12482D-02  0.00D+00  8.12D-02  2.44D+00    3.97334D-02
         4    8.21217D-02  0.00D+00  8.21D-02  2.46D+00    5.96001D-02
         5    8.33731D-02  0.00D+00  8.34D-02  2.49D+00    7.94668D-02
         6    8.50327D-02  0.00D+00  8.50D-02  2.53D+00    9.93334D-02
         7    8.71421D-02  0.00D+00  8.71D-02  2.58D+00    1.19200D-01
         8    8.97570D-02  0.00D+00  8.98D-02  2.64D+00    1.39067D-01
         9    9.29500D-02  0.00D+00  9.30D-02  2.71D+00    1.58934D-01

 ** RSPCTL MICROITERATION NUMBER    3

       No.  Residual tot.,    conf., and orb.    Bnorm      Frequency 
      ----------------------------------------------------------------
         1    8.29069D-03  0.00D+00  8.29D-03  2.42D+00    0.00000D+00
         2    8.33159D-03  0.00D+00  8.33D-03  2.42D+00    1.98667D-02
         3    8.45503D-03  0.00D+00  8.46D-03  2.44D+00    3.97334D-02
         4    8.66320D-03  0.00D+00  8.66D-03  2.46D+00    5.96001D-02
         5    8.95998D-03  0.00D+00  8.96D-03  2.49D+00    7.94668D-02
         6    9.35112D-03  0.00D+00  9.35D-03  2.53D+00    9.93334D-02
         7    9.84471D-03  0.00D+00  9.84D-03  2.58D+00    1.19200D-01
         8    1.04516D-02  0.00D+00  1.05D-02  2.64D+00    1.39067D-01
         9    1.11862D-02  0.00D+00  1.12D-02  2.71D+00    1.58934D-01

 ** RSPCTL MICROITERATION NUMBER    4

       No.  Residual tot.,    conf., and orb.    Bnorm      Frequency 
      ----------------------------------------------------------------
         1    6.34348D-04  0.00D+00  6.34D-04  2.42D+00    0.00000D+00
         2    6.43023D-04  0.00D+00  6.43D-04  2.42D+00    1.98667D-02
         3    6.69144D-04  0.00D+00  6.69D-04  2.44D+00    3.97334D-02
         4    7.13052D-04  0.00D+00  7.13D-04  2.46D+00    5.96001D-02
         5    7.75465D-04  0.00D+00  7.75D-04  2.49D+00    7.94668D-02
         6    8.57652D-04  0.00D+00  8.58D-04  2.53D+00    9.93334D-02
         7    9.61611D-04  0.00D+00  9.62D-04  2.58D+00    1.19200D-01
         8    1.09025D-03  0.00D+00  1.09D-03  2.64D+00    1.39067D-01
         9    1.24761D-03  0.00D+00  1.25D-03  2.71D+00    1.58934D-01

 *** THE REQUESTED    9 SOLUTION VECTORS CONVERGED

 Convergence of RSP solution vectors, threshold = 1.00D-03
 ---------------------------------------------------------------
 (dimension of paired reduced space:   70)
 RSP solution vector no.    1; norm of residual   2.62D-04
 RSP solution vector no.    2; norm of residual   2.65D-04
 RSP solution vector no.    3; norm of residual   2.75D-04
 RSP solution vector no.    4; norm of residual   2.90D-04
 RSP solution vector no.    5; norm of residual   3.12D-04
 RSP solution vector no.    6; norm of residual   3.39D-04
 RSP solution vector no.    7; norm of residual   3.73D-04
 RSP solution vector no.    8; norm of residual   4.14D-04
 RSP solution vector no.    9; norm of residual   4.61D-04

 *** RSPCTL MICROITERATIONS CONVERGED

@ QRLRVE: SINGLET SOLUTION FOR SYMMETRY    1  ( A  )    LABEL   YDIPLEN     FREQUENCY   0.000000D+00

@ QRLRVE:  << XDIPLEN  ; YDIPLEN  >> (   0.00000):    5.063428805651E-14

@ QRLRVE:  << YDIPLEN  ; YDIPLEN  >> (   0.00000):     9.16865929152    

@ QRLRVE:  << ZDIPLEN  ; YDIPLEN  >> (   0.00000):   -5.970106560195E-05

@ QRLRVE: SINGLET SOLUTION FOR SYMMETRY    1  ( A  )    LABEL   YDIPLEN     FREQUENCY   0.198667D-01

@ QRLRVE:  << XDIPLEN  ; YDIPLEN  >> (   0.01987):    5.124908285394E-14

@ QRLRVE:  << YDIPLEN  ; YDIPLEN  >> (   0.01987):     9.17686824092    

@ QRLRVE:  << ZDIPLEN  ; YDIPLEN  >> (   0.01987):   -6.038979082392E-05

@ QRLRVE: SINGLET SOLUTION FOR SYMMETRY    1  ( A  )    LABEL   YDIPLEN     FREQUENCY   0.397334D-01

@ QRLRVE:  << XDIPLEN  ; YDIPLEN  >> (   0.03973):    5.311411345301E-14

@ QRLRVE:  << YDIPLEN  ; YDIPLEN  >> (   0.03973):     9.20160892758    

@ QRLRVE:  << ZDIPLEN  ; YDIPLEN  >> (   0.03973):   -6.247926698700E-05

@ QRLRVE: SINGLET SOLUTION FOR SYMMETRY    1  ( A  )    LABEL   YDIPLEN     FREQUENCY   0.596001D-01

@ QRLRVE:  << XDIPLEN  ; YDIPLEN  >> (   0.05960):    5.629261802959E-14

@ QRLRVE:  << YDIPLEN  ; YDIPLEN  >> (   0.05960):     9.24322733433    

@ QRLRVE:  << ZDIPLEN  ; YDIPLEN  >> (   0.05960):   -6.604039452964E-05

@ QRLRVE: SINGLET SOLUTION FOR SYMMETRY    1  ( A  )    LABEL   YDIPLEN     FREQUENCY   0.794668D-01

@ QRLRVE:  << XDIPLEN  ; YDIPLEN  >> (   0.07947):    6.089446388571E-14

@ QRLRVE:  << YDIPLEN  ; YDIPLEN  >> (   0.07947):     9.30231534395    

@ QRLRVE:  << ZDIPLEN  ; YDIPLEN  >> (   0.07947):   -7.119467933044E-05

@ QRLRVE: SINGLET SOLUTION FOR SYMMETRY    1  ( A  )    LABEL   YDIPLEN     FREQUENCY   0.993334D-01

@ QRLRVE:  << XDIPLEN  ; YDIPLEN  >> (   0.09933):    6.708336082131E-14

@ QRLRVE:  << YDIPLEN  ; YDIPLEN  >> (   0.09933):     9.37973488990    

@ QRLRVE:  << ZDIPLEN  ; YDIPLEN  >> (   0.09933):   -7.811924924673E-05

@ QRLRVE: SINGLET SOLUTION FOR SYMMETRY    1  ( A  )    LABEL   YDIPLEN     FREQUENCY   0.119200D+00

@ QRLRVE:  << XDIPLEN  ; YDIPLEN  >> (   0.11920):    7.508806467905E-14

@ QRLRVE:  << YDIPLEN  ; YDIPLEN  >> (   0.11920):     9.47665451580    

@ QRLRVE:  << ZDIPLEN  ; YDIPLEN  >> (   0.11920):   -8.705380546117E-05

@ QRLRVE: SINGLET SOLUTION FOR SYMMETRY    1  ( A  )    LABEL   YDIPLEN     FREQUENCY   0.139067D+00

@ QRLRVE:  << XDIPLEN  ; YDIPLEN  >> (   0.13907):    8.521890717121E-14

@ QRLRVE:  << YDIPLEN  ; YDIPLEN  >> (   0.13907):     9.59460155540    

@ QRLRVE:  << ZDIPLEN  ; YDIPLEN  >> (   0.13907):   -9.830917704081E-05

@ QRLRVE: SINGLET SOLUTION FOR SYMMETRY    1  ( A  )    LABEL   YDIPLEN     FREQUENCY   0.158934D+00

@ QRLRVE:  << XDIPLEN  ; YDIPLEN  >> (   0.15893):    9.789176923644E-14

@ QRLRVE:  << YDIPLEN  ; YDIPLEN  >> (   0.15893):     9.73553483805    

@ QRLRVE:  << ZDIPLEN  ; YDIPLEN  >> (   0.15893):   -1.122765202619E-04


 QRLRVE -- linear response calculation for symmetry  1  ( A  )
 QRLRVE -- operator label : ZDIPLEN 
 QRLRVE -- operator spin  :   0
 QRLRVE -- frequencies :  0.000000  0.019867  0.039733  0.059600  0.079467
                          0.099333  0.119200  0.139067  0.158934



 ---  SOLVING SETS OF LINEAR EQUATIONS FOR LINEAR RESPONSE PROPERTIES ---

 Operator symmetry = 1  ( A  ); triplet =   F

RSPORT:    1 out of    9 new trial vectors linear dependent

 ** RSPCTL MICROITERATION NUMBER    1

       No.  Residual tot.,    conf., and orb.    Bnorm      Frequency 
      ----------------------------------------------------------------
         1    1.52442D+00  0.00D+00  1.52D+00  2.18D+00    0.00000D+00
         2    1.52584D+00  0.00D+00  1.53D+00  2.18D+00    1.98667D-02
         3    1.53015D+00  0.00D+00  1.53D+00  2.20D+00    3.97334D-02
         4    1.53741D+00  0.00D+00  1.54D+00  2.22D+00    5.96001D-02
         5    1.54775D+00  0.00D+00  1.55D+00  2.25D+00    7.94668D-02
         6    1.56138D+00  0.00D+00  1.56D+00  2.29D+00    9.93334D-02
         7    1.57857D+00  0.00D+00  1.58D+00  2.35D+00    1.19200D-01
         8    1.59968D+00  0.00D+00  1.60D+00  2.42D+00    1.39067D-01
         9    1.62522D+00  0.00D+00  1.63D+00  2.50D+00    1.58934D-01

 ** RSPCTL MICROITERATION NUMBER    2

       No.  Residual tot.,    conf., and orb.    Bnorm      Frequency 
      ----------------------------------------------------------------
         1    3.28237D-01  0.00D+00  3.28D-01  2.36D+00    0.00000D+00
         2    3.28687D-01  0.00D+00  3.29D-01  2.37D+00    1.98667D-02
         3    3.30046D-01  0.00D+00  3.30D-01  2.38D+00    3.97334D-02
         4    3.32342D-01  0.00D+00  3.32D-01  2.41D+00    5.96001D-02
         5    3.35626D-01  0.00D+00  3.36D-01  2.45D+00    7.94668D-02
         6    3.39971D-01  0.00D+00  3.40D-01  2.50D+00    9.93334D-02
         7    3.45483D-01  0.00D+00  3.45D-01  2.57D+00    1.19200D-01
         8    3.52304D-01  0.00D+00  3.52D-01  2.65D+00    1.39067D-01
         9    3.60629D-01  0.00D+00  3.61D-01  2.75D+00    1.58934D-01

 ** RSPCTL MICROITERATION NUMBER    3

       No.  Residual tot.,    conf., and orb.    Bnorm      Frequency 
      ----------------------------------------------------------------
         1    4.07827D-02  0.00D+00  4.08D-02  2.37D+00    0.00000D+00
         2    4.08632D-02  0.00D+00  4.09D-02  2.38D+00    1.98667D-02
         3    4.11067D-02  0.00D+00  4.11D-02  2.39D+00    3.97334D-02
         4    4.15194D-02  0.00D+00  4.15D-02  2.42D+00    5.96001D-02
         5    4.21119D-02  0.00D+00  4.21D-02  2.46D+00    7.94668D-02
         6    4.29002D-02  0.00D+00  4.29D-02  2.51D+00    9.93334D-02
         7    4.39069D-02  0.00D+00  4.39D-02  2.58D+00    1.19200D-01
         8    4.51633D-02  0.00D+00  4.52D-02  2.66D+00    1.39067D-01
         9    4.67121D-02  0.00D+00  4.67D-02  2.76D+00    1.58934D-01

 ** RSPCTL MICROITERATION NUMBER    4

       No.  Residual tot.,    conf., and orb.    Bnorm      Frequency 
      ----------------------------------------------------------------
         1    3.19277D-03  0.00D+00  3.19D-03  2.37D+00    0.00000D+00
         2    3.20205D-03  0.00D+00  3.20D-03  2.38D+00    1.98667D-02
         3    3.23025D-03  0.00D+00  3.23D-03  2.39D+00    3.97334D-02
         4    3.27847D-03  0.00D+00  3.28D-03  2.42D+00    5.96001D-02
         5    3.34868D-03  0.00D+00  3.35D-03  2.46D+00    7.94668D-02
         6    3.44387D-03  0.00D+00  3.44D-03  2.51D+00    9.93334D-02
         7    3.56839D-03  0.00D+00  3.57D-03  2.58D+00    1.19200D-01
         8    3.72843D-03  0.00D+00  3.73D-03  2.66D+00    1.39067D-01
         9    3.93274D-03  0.00D+00  3.93D-03  2.76D+00    1.58934D-01

 ** RSPCTL MICROITERATION NUMBER    5

       No.  Residual tot.,    conf., and orb.    Bnorm      Frequency 
      ----------------------------------------------------------------
         1    3.75554D-04  0.00D+00  3.76D-04  2.37D+00    0.00000D+00
         2    3.76699D-04  0.00D+00  3.77D-04  2.38D+00    1.98667D-02
         3    3.80159D-04  0.00D+00  3.80D-04  2.39D+00    3.97334D-02
         4    3.86017D-04  0.00D+00  3.86D-04  2.42D+00    5.96001D-02
         5    3.94414D-04  0.00D+00  3.94D-04  2.46D+00    7.94668D-02
         6    4.05561D-04  0.00D+00  4.06D-04  2.51D+00    9.93334D-02
         7    4.19756D-04  0.00D+00  4.20D-04  2.58D+00    1.19200D-01
         8    4.37409D-04  0.00D+00  4.37D-04  2.66D+00    1.39067D-01
         9    4.59086D-04  0.00D+00  4.59D-04  2.76D+00    1.58934D-01

 *** THE REQUESTED    9 SOLUTION VECTORS CONVERGED

 Convergence of RSP solution vectors, threshold = 1.00D-03
 ---------------------------------------------------------------
 (dimension of paired reduced space:   88)
 RSP solution vector no.    1; norm of residual   1.58D-04
 RSP solution vector no.    2; norm of residual   1.59D-04
 RSP solution vector no.    3; norm of residual   1.59D-04
 RSP solution vector no.    4; norm of residual   1.60D-04
 RSP solution vector no.    5; norm of residual   1.60D-04
 RSP solution vector no.    6; norm of residual   1.62D-04
 RSP solution vector no.    7; norm of residual   1.63D-04
 RSP solution vector no.    8; norm of residual   1.64D-04
 RSP solution vector no.    9; norm of residual   1.66D-04

 *** RSPCTL MICROITERATIONS CONVERGED

@ QRLRVE: SINGLET SOLUTION FOR SYMMETRY    1  ( A  )    LABEL   ZDIPLEN     FREQUENCY   0.000000D+00

@ QRLRVE:  << XDIPLEN  ; ZDIPLEN  >> (   0.00000):    1.136612903419E-14

@ QRLRVE:  << YDIPLEN  ; ZDIPLEN  >> (   0.00000):   -9.143515662412E-06

@ QRLRVE:  << ZDIPLEN  ; ZDIPLEN  >> (   0.00000):     8.38953019657    

@ QRLRVE: SINGLET SOLUTION FOR SYMMETRY    1  ( A  )    LABEL   ZDIPLEN     FREQUENCY   0.198667D-01

@ QRLRVE:  << XDIPLEN  ; ZDIPLEN  >> (   0.01987):    1.201675973863E-14

@ QRLRVE:  << YDIPLEN  ; ZDIPLEN  >> (   0.01987):   -9.297292700364E-06

@ QRLRVE:  << ZDIPLEN  ; ZDIPLEN  >> (   0.01987):     8.39820316127    

@ QRLRVE: SINGLET SOLUTION FOR SYMMETRY    1  ( A  )    LABEL   ZDIPLEN     FREQUENCY   0.397334D-01

@ QRLRVE:  << XDIPLEN  ; ZDIPLEN  >> (   0.03973):    1.401911453668E-14

@ QRLRVE:  << YDIPLEN  ; ZDIPLEN  >> (   0.03973):   -9.763516740408E-06

@ QRLRVE:  << ZDIPLEN  ; ZDIPLEN  >> (   0.03973):     8.42439710755    

@ QRLRVE: SINGLET SOLUTION FOR SYMMETRY    1  ( A  )    LABEL   ZDIPLEN     FREQUENCY   0.596001D-01

@ QRLRVE:  << XDIPLEN  ; ZDIPLEN  >> (   0.05960):    1.753116500695E-14

@ QRLRVE:  << YDIPLEN  ; ZDIPLEN  >> (   0.05960):   -1.055693359147E-05

@ QRLRVE:  << ZDIPLEN  ; ZDIPLEN  >> (   0.05960):     8.46864837440    

@ QRLRVE: SINGLET SOLUTION FOR SYMMETRY    1  ( A  )    LABEL   ZDIPLEN     FREQUENCY   0.794668D-01

@ QRLRVE:  << XDIPLEN  ; ZDIPLEN  >> (   0.07947):    2.283945305065E-14

@ QRLRVE:  << YDIPLEN  ; ZDIPLEN  >> (   0.07947):   -1.170228488892E-05

@ QRLRVE:  << ZDIPLEN  ; ZDIPLEN  >> (   0.07947):     8.53188962225    

@ QRLRVE: SINGLET SOLUTION FOR SYMMETRY    1  ( A  )    LABEL   ZDIPLEN     FREQUENCY   0.993334D-01

@ QRLRVE:  << XDIPLEN  ; ZDIPLEN  >> (   0.09933):    3.039893911305E-14

@ QRLRVE:  << YDIPLEN  ; ZDIPLEN  >> (   0.09933):   -1.323432232147E-05

@ QRLRVE:  << ZDIPLEN  ; ZDIPLEN  >> (   0.09933):     8.61551351853    

@ QRLRVE: SINGLET SOLUTION FOR SYMMETRY    1  ( A  )    LABEL   ZDIPLEN     FREQUENCY   0.119200D+00

@ QRLRVE:  << XDIPLEN  ; ZDIPLEN  >> (   0.11920):    4.090022364391E-14

@ QRLRVE:  << YDIPLEN  ; ZDIPLEN  >> (   0.11920):   -1.519723565659E-05

@ QRLRVE:  << ZDIPLEN  ; ZDIPLEN  >> (   0.11920):     8.72147431566    

@ QRLRVE: SINGLET SOLUTION FOR SYMMETRY    1  ( A  )    LABEL   ZDIPLEN     FREQUENCY   0.139067D+00

@ QRLRVE:  << XDIPLEN  ; ZDIPLEN  >> (   0.13907):    5.537972114660E-14

@ QRLRVE:  << YDIPLEN  ; ZDIPLEN  >> (   0.13907):   -1.764254431707E-05

@ QRLRVE:  << ZDIPLEN  ; ZDIPLEN  >> (   0.13907):     8.85244334056    

@ QRLRVE: SINGLET SOLUTION FOR SYMMETRY    1  ( A  )    LABEL   ZDIPLEN     FREQUENCY   0.158934D+00

@ QRLRVE:  << XDIPLEN  ; ZDIPLEN  >> (   0.15893):    7.540073010476E-14

@ QRLRVE:  << YDIPLEN  ; ZDIPLEN  >> (   0.15893):   -2.062349901016E-05

@ QRLRVE:  << ZDIPLEN  ; ZDIPLEN  >> (   0.15893):     9.01204565610    
 
 ======================================================================
 ---  L I N E A R   R E S P O N S E   F U N C T I O N S --- 
 ======================================================================

 The -<<A;B>>(omega_b) functions from vectors generated
 in a *QUADRA calculation of <<A;B,C>>(omega_b,omega_c)

 Note: the accuracy of off-diagonal elements will be linear
 in the convergence threshold THCLR =  1.00D-03


 Perturbation symmetry.     KSYMOP:           1
 Perturbation spin symmetry.TRPLET:           F
 Orbital variables.         KZWOPT:         500
 Configuration variables.   KZCONF:           0
 Total number of variables. KZVAR :         500

@ Singlet linear response function in a.u.

@ A operator, symmetry, frequency:   XDIPLEN    1 -0.000000
@ B operator, symmetry, frequency:   XDIPLEN    1  0.000000

@ Value of linear response -<<A;B>>(omega):       7.723013417388

@ Singlet linear response function in a.u.

@ A operator, symmetry, frequency:   YDIPLEN    1 -0.000000
@ B operator, symmetry, frequency:   XDIPLEN    1  0.000000

@ Value of linear response -<<A;B>>(omega):       0.000000000000

@ Singlet linear response function in a.u.

@ A operator, symmetry, frequency:   ZDIPLEN    1 -0.000000
@ B operator, symmetry, frequency:   XDIPLEN    1  0.000000

@ Value of linear response -<<A;B>>(omega):      -0.000000000000

@ Singlet linear response function in a.u.

@ A operator, symmetry, frequency:   XDIPLEN    1 -0.019867
@ B operator, symmetry, frequency:   XDIPLEN    1  0.019867

@ Value of linear response -<<A;B>>(omega):       7.732869265711

@ Singlet linear response function in a.u.

@ A operator, symmetry, frequency:   YDIPLEN    1 -0.019867
@ B operator, symmetry, frequency:   XDIPLEN    1  0.019867

@ Value of linear response -<<A;B>>(omega):       0.000000000000

@ Singlet linear response function in a.u.

@ A operator, symmetry, frequency:   ZDIPLEN    1 -0.019867
@ B operator, symmetry, frequency:   XDIPLEN    1  0.019867

@ Value of linear response -<<A;B>>(omega):      -0.000000000000

@ Singlet linear response function in a.u.

@ A operator, symmetry, frequency:   XDIPLEN    1 -0.039733
@ B operator, symmetry, frequency:   XDIPLEN    1  0.039733

@ Value of linear response -<<A;B>>(omega):       7.762750322537

@ Singlet linear response function in a.u.

@ A operator, symmetry, frequency:   YDIPLEN    1 -0.039733
@ B operator, symmetry, frequency:   XDIPLEN    1  0.039733

@ Value of linear response -<<A;B>>(omega):       0.000000000000

@ Singlet linear response function in a.u.

@ A operator, symmetry, frequency:   ZDIPLEN    1 -0.039733
@ B operator, symmetry, frequency:   XDIPLEN    1  0.039733

@ Value of linear response -<<A;B>>(omega):      -0.000000000000

@ Singlet linear response function in a.u.

@ A operator, symmetry, frequency:   XDIPLEN    1 -0.059600
@ B operator, symmetry, frequency:   XDIPLEN    1  0.059600

@ Value of linear response -<<A;B>>(omega):       7.813630848821

@ Singlet linear response function in a.u.

@ A operator, symmetry, frequency:   YDIPLEN    1 -0.059600
@ B operator, symmetry, frequency:   XDIPLEN    1  0.059600

@ Value of linear response -<<A;B>>(omega):       0.000000000000

@ Singlet linear response function in a.u.

@ A operator, symmetry, frequency:   ZDIPLEN    1 -0.059600
@ B operator, symmetry, frequency:   XDIPLEN    1  0.059600

@ Value of linear response -<<A;B>>(omega):      -0.000000000000

@ Singlet linear response function in a.u.

@ A operator, symmetry, frequency:   XDIPLEN    1 -0.079467
@ B operator, symmetry, frequency:   XDIPLEN    1  0.079467

@ Value of linear response -<<A;B>>(omega):       7.887254613812

@ Singlet linear response function in a.u.

@ A operator, symmetry, frequency:   YDIPLEN    1 -0.079467
@ B operator, symmetry, frequency:   XDIPLEN    1  0.079467

@ Value of linear response -<<A;B>>(omega):       0.000000000000

@ Singlet linear response function in a.u.

@ A operator, symmetry, frequency:   ZDIPLEN    1 -0.079467
@ B operator, symmetry, frequency:   XDIPLEN    1  0.079467

@ Value of linear response -<<A;B>>(omega):      -0.000000000000

@ Singlet linear response function in a.u.

@ A operator, symmetry, frequency:   XDIPLEN    1 -0.000000
@ B operator, symmetry, frequency:   YDIPLEN    1  0.000000

@ Value of linear response -<<A;B>>(omega):       0.000000000000

@ Singlet linear response function in a.u.

@ A operator, symmetry, frequency:   YDIPLEN    1 -0.000000
@ B operator, symmetry, frequency:   YDIPLEN    1  0.000000

@ Value of linear response -<<A;B>>(omega):       9.168659291520

@ Singlet linear response function in a.u.

@ A operator, symmetry, frequency:   ZDIPLEN    1 -0.000000
@ B operator, symmetry, frequency:   YDIPLEN    1  0.000000

@ Value of linear response -<<A;B>>(omega):      -0.000059701066

@ Singlet linear response function in a.u.

@ A operator, symmetry, frequency:   XDIPLEN    1 -0.019867
@ B operator, symmetry, frequency:   YDIPLEN    1  0.019867

@ Value of linear response -<<A;B>>(omega):       0.000000000000

@ Singlet linear response function in a.u.

@ A operator, symmetry, frequency:   YDIPLEN    1 -0.019867
@ B operator, symmetry, frequency:   YDIPLEN    1  0.019867

@ Value of linear response -<<A;B>>(omega):       9.176868240924

@ Singlet linear response function in a.u.

@ A operator, symmetry, frequency:   ZDIPLEN    1 -0.019867
@ B operator, symmetry, frequency:   YDIPLEN    1  0.019867

@ Value of linear response -<<A;B>>(omega):      -0.000060389791

@ Singlet linear response function in a.u.

@ A operator, symmetry, frequency:   XDIPLEN    1 -0.039733
@ B operator, symmetry, frequency:   YDIPLEN    1  0.039733

@ Value of linear response -<<A;B>>(omega):       0.000000000000

@ Singlet linear response function in a.u.

@ A operator, symmetry, frequency:   YDIPLEN    1 -0.039733
@ B operator, symmetry, frequency:   YDIPLEN    1  0.039733

@ Value of linear response -<<A;B>>(omega):       9.201608927583

@ Singlet linear response function in a.u.

@ A operator, symmetry, frequency:   ZDIPLEN    1 -0.039733
@ B operator, symmetry, frequency:   YDIPLEN    1  0.039733

@ Value of linear response -<<A;B>>(omega):      -0.000062479267

@ Singlet linear response function in a.u.

@ A operator, symmetry, frequency:   XDIPLEN    1 -0.059600
@ B operator, symmetry, frequency:   YDIPLEN    1  0.059600

@ Value of linear response -<<A;B>>(omega):       0.000000000000

@ Singlet linear response function in a.u.

@ A operator, symmetry, frequency:   YDIPLEN    1 -0.059600
@ B operator, symmetry, frequency:   YDIPLEN    1  0.059600

@ Value of linear response -<<A;B>>(omega):       9.243227334328

@ Singlet linear response function in a.u.

@ A operator, symmetry, frequency:   ZDIPLEN    1 -0.059600
@ B operator, symmetry, frequency:   YDIPLEN    1  0.059600

@ Value of linear response -<<A;B>>(omega):      -0.000066040395

@ Singlet linear response function in a.u.

@ A operator, symmetry, frequency:   XDIPLEN    1 -0.079467
@ B operator, symmetry, frequency:   YDIPLEN    1  0.079467

@ Value of linear response -<<A;B>>(omega):       0.000000000000

@ Singlet linear response function in a.u.

@ A operator, symmetry, frequency:   YDIPLEN    1 -0.079467
@ B operator, symmetry, frequency:   YDIPLEN    1  0.079467

@ Value of linear response -<<A;B>>(omega):       9.302315343954

@ Singlet linear response function in a.u.

@ A operator, symmetry, frequency:   ZDIPLEN    1 -0.079467
@ B operator, symmetry, frequency:   YDIPLEN    1  0.079467

@ Value of linear response -<<A;B>>(omega):      -0.000071194679

@ Singlet linear response function in a.u.

@ A operator, symmetry, frequency:   XDIPLEN    1 -0.000000
@ B operator, symmetry, frequency:   ZDIPLEN    1  0.000000

@ Value of linear response -<<A;B>>(omega):       0.000000000000

@ Singlet linear response function in a.u.

@ A operator, symmetry, frequency:   YDIPLEN    1 -0.000000
@ B operator, symmetry, frequency:   ZDIPLEN    1  0.000000

@ Value of linear response -<<A;B>>(omega):      -0.000009143516

@ Singlet linear response function in a.u.

@ A operator, symmetry, frequency:   ZDIPLEN    1 -0.000000
@ B operator, symmetry, frequency:   ZDIPLEN    1  0.000000

@ Value of linear response -<<A;B>>(omega):       8.389530196573

@ Singlet linear response function in a.u.

@ A operator, symmetry, frequency:   XDIPLEN    1 -0.019867
@ B operator, symmetry, frequency:   ZDIPLEN    1  0.019867

@ Value of linear response -<<A;B>>(omega):       0.000000000000

@ Singlet linear response function in a.u.

@ A operator, symmetry, frequency:   YDIPLEN    1 -0.019867
@ B operator, symmetry, frequency:   ZDIPLEN    1  0.019867

@ Value of linear response -<<A;B>>(omega):      -0.000009297293

@ Singlet linear response function in a.u.

@ A operator, symmetry, frequency:   ZDIPLEN    1 -0.019867
@ B operator, symmetry, frequency:   ZDIPLEN    1  0.019867

@ Value of linear response -<<A;B>>(omega):       8.398203161273

@ Singlet linear response function in a.u.

@ A operator, symmetry, frequency:   XDIPLEN    1 -0.039733
@ B operator, symmetry, frequency:   ZDIPLEN    1  0.039733

@ Value of linear response -<<A;B>>(omega):       0.000000000000

@ Singlet linear response function in a.u.

@ A operator, symmetry, frequency:   YDIPLEN    1 -0.039733
@ B operator, symmetry, frequency:   ZDIPLEN    1  0.039733

@ Value of linear response -<<A;B>>(omega):      -0.000009763517

@ Singlet linear response function in a.u.

@ A operator, symmetry, frequency:   ZDIPLEN    1 -0.039733
@ B operator, symmetry, frequency:   ZDIPLEN    1  0.039733

@ Value of linear response -<<A;B>>(omega):       8.424397107546

@ Singlet linear response function in a.u.

@ A operator, symmetry, frequency:   XDIPLEN    1 -0.059600
@ B operator, symmetry, frequency:   ZDIPLEN    1  0.059600

@ Value of linear response -<<A;B>>(omega):       0.000000000000

@ Singlet linear response function in a.u.

@ A operator, symmetry, frequency:   YDIPLEN    1 -0.059600
@ B operator, symmetry, frequency:   ZDIPLEN    1  0.059600

@ Value of linear response -<<A;B>>(omega):      -0.000010556934

@ Singlet linear response function in a.u.

@ A operator, symmetry, frequency:   ZDIPLEN    1 -0.059600
@ B operator, symmetry, frequency:   ZDIPLEN    1  0.059600

@ Value of linear response -<<A;B>>(omega):       8.468648374397

@ Singlet linear response function in a.u.

@ A operator, symmetry, frequency:   XDIPLEN    1 -0.079467
@ B operator, symmetry, frequency:   ZDIPLEN    1  0.079467

@ Value of linear response -<<A;B>>(omega):       0.000000000000

@ Singlet linear response function in a.u.

@ A operator, symmetry, frequency:   YDIPLEN    1 -0.079467
@ B operator, symmetry, frequency:   ZDIPLEN    1  0.079467

@ Value of linear response -<<A;B>>(omega):      -0.000011702285

@ Singlet linear response function in a.u.

@ A operator, symmetry, frequency:   ZDIPLEN    1 -0.079467
@ B operator, symmetry, frequency:   ZDIPLEN    1  0.079467

@ Value of linear response -<<A;B>>(omega):       8.531889622247


  Results from quadratic response calculation
 --------------------------------------------

@ B-freq = 0.000000  C-freq = 0.000000     beta(X;X,X) =     -0.00000000
@ B-freq = 0.000000  C-freq = 0.000000     beta(Y;X,X) =     -0.00006529
@ B-freq = 0.000000  C-freq = 0.000000     beta(Z;X,X) =      1.37234915
@ B-freq = 0.019867  C-freq = 0.000000     beta(X;X,X) =     -0.00000000
@ B-freq = 0.019867  C-freq = 0.000000     beta(Y;X,X) =     -0.00007150
@ B-freq = 0.019867  C-freq = 0.000000     beta(Z;X,X) =      1.37401944
@ B-freq = 0.039733  C-freq = 0.000000     beta(X;X,X) =     -0.00000000
@ B-freq = 0.039733  C-freq = 0.000000     beta(Y;X,X) =     -0.00009080
@ B-freq = 0.039733  C-freq = 0.000000     beta(Z;X,X) =      1.37904003
@ B-freq = 0.059600  C-freq = 0.000000     beta(X;X,X) =     -0.00000000
@ B-freq = 0.059600  C-freq = 0.000000     beta(Y;X,X) =     -0.00012536
@ B-freq = 0.059600  C-freq = 0.000000     beta(Z;X,X) =      1.38744225
@ B-freq = 0.079467  C-freq = 0.000000     beta(X;X,X) =     -0.00000000
@ B-freq = 0.079467  C-freq = 0.000000     beta(Y;X,X) =     -0.00017925
@ B-freq = 0.079467  C-freq = 0.000000     beta(Z;X,X) =      1.39928680
@ B-freq = 0.000000  C-freq = 0.000000     beta(X;Y,X) = beta(Y,X,X)
@ B-freq = 0.000000  C-freq = 0.000000     beta(X;Y,X) =     -0.00006529
@ B-freq = 0.000000  C-freq = 0.000000     beta(Y;Y,X) =     -0.00000000
@ B-freq = 0.000000  C-freq = 0.000000     beta(Z;Y,X) =      0.00000000
@ B-freq = 0.019867  C-freq = 0.000000     beta(X;Y,X) =     -0.00007150
@ B-freq = 0.019867  C-freq = 0.000000     beta(Y;Y,X) =     -0.00000000
@ B-freq = 0.019867  C-freq = 0.000000     beta(Z;Y,X) =      0.00000000
@ B-freq = 0.039733  C-freq = 0.000000     beta(X;Y,X) =     -0.00009080
@ B-freq = 0.039733  C-freq = 0.000000     beta(Y;Y,X) =     -0.00000000
@ B-freq = 0.039733  C-freq = 0.000000     beta(Z;Y,X) =      0.00000000
@ B-freq = 0.059600  C-freq = 0.000000     beta(X;Y,X) =     -0.00012536
@ B-freq = 0.059600  C-freq = 0.000000     beta(Y;Y,X) =     -0.00000000
[...]
@ B-freq = 0.059600  C-freq = 0.059600     beta(X;Z,Y) =      0.00000000
@ B-freq = 0.059600  C-freq = 0.059600     beta(Y;Z,Y) =     11.91630735
@ B-freq = 0.059600  C-freq = 0.059600     beta(Z;Z,Y) =     -0.00071718
@ B-freq = 0.079467  C-freq = 0.059600     beta(X;Z,Y) =      0.00000000
@ B-freq = 0.079467  C-freq = 0.059600     beta(Y;Z,Y) =     12.34763888
@ B-freq = 0.079467  C-freq = 0.059600     beta(Z;Z,Y) =     -0.00078405
@ B-freq = 0.000000  C-freq = 0.079467     beta(X;X,Y) = beta(X,Y,X)
@ B-freq = 0.000000  C-freq = 0.079467     beta(Y;X,Y) = beta(Y,Y,X)
@ B-freq = 0.000000  C-freq = 0.079467     beta(Z;X,Y) = beta(Z,Y,X)
@ B-freq = 0.019867  C-freq = 0.079467     beta(X;X,Y) = beta(X,Y,X)
@ B-freq = 0.019867  C-freq = 0.079467     beta(Y;X,Y) = beta(Y,Y,X)
@ B-freq = 0.019867  C-freq = 0.079467     beta(Z;X,Y) = beta(Z,Y,X)
@ B-freq = 0.039733  C-freq = 0.079467     beta(X;X,Y) = beta(X,Y,X)
@ B-freq = 0.039733  C-freq = 0.079467     beta(Y;X,Y) = beta(Y,Y,X)
@ B-freq = 0.039733  C-freq = 0.079467     beta(Z;X,Y) = beta(Z,Y,X)
@ B-freq = 0.059600  C-freq = 0.079467     beta(X;X,Y) = beta(X,Y,X)
@ B-freq = 0.059600  C-freq = 0.079467     beta(Y;X,Y) = beta(Y,Y,X)
@ B-freq = 0.059600  C-freq = 0.079467     beta(Z;X,Y) = beta(Z,Y,X)
@ B-freq = 0.079467  C-freq = 0.079467     beta(X;X,Y) = beta(X,Y,X)
@ B-freq = 0.079467  C-freq = 0.079467     beta(Y;X,Y) = beta(Y,Y,X)
@ B-freq = 0.079467  C-freq = 0.079467     beta(Z;X,Y) = beta(Z,Y,X)
@ B-freq = 0.000000  C-freq = 0.079467     beta(X;Y,Y) = beta(X,Y,Y)
@ B-freq = 0.000000  C-freq = 0.079467     beta(Y;Y,Y) = beta(Y,Y,Y)
@ B-freq = 0.000000  C-freq = 0.079467     beta(Z;Y,Y) = beta(Z,Y,Y)
@ B-freq = 0.019867  C-freq = 0.079467     beta(X;Y,Y) = beta(X,Y,Y)
@ B-freq = 0.019867  C-freq = 0.079467     beta(Y;Y,Y) = beta(Y,Y,Y)
@ B-freq = 0.019867  C-freq = 0.079467     beta(Z;Y,Y) = beta(Z,Y,Y)
@ B-freq = 0.039733  C-freq = 0.079467     beta(X;Y,Y) = beta(X,Y,Y)
@ B-freq = 0.039733  C-freq = 0.079467     beta(Y;Y,Y) = beta(Y,Y,Y)
@ B-freq = 0.039733  C-freq = 0.079467     beta(Z;Y,Y) = beta(Z,Y,Y)
@ B-freq = 0.059600  C-freq = 0.079467     beta(X;Y,Y) = beta(X,Y,Y)
@ B-freq = 0.059600  C-freq = 0.079467     beta(Y;Y,Y) = beta(Y,Y,Y)
@ B-freq = 0.059600  C-freq = 0.079467     beta(Z;Y,Y) = beta(Z,Y,Y)
@ B-freq = 0.079467  C-freq = 0.079467     beta(X;Y,Y) =     -0.00000000
@ B-freq = 0.079467  C-freq = 0.079467     beta(Y;Y,Y) =     -0.00000155
@ B-freq = 0.079467  C-freq = 0.079467     beta(Z;Y,Y) =     12.83774707
@ B-freq = 0.000000  C-freq = 0.079467     beta(X;Z,Y) =      0.00000000
@ B-freq = 0.000000  C-freq = 0.079467     beta(Y;Z,Y) =     11.47044063
@ B-freq = 0.000000  C-freq = 0.079467     beta(Z;Z,Y) =     -0.00063787
@ B-freq = 0.019867  C-freq = 0.079467     beta(X;Z,Y) =      0.00000000
@ B-freq = 0.019867  C-freq = 0.079467     beta(Y;Z,Y) =     11.67246305
@ B-freq = 0.019867  C-freq = 0.079467     beta(Z;Z,Y) =     -0.00066732
@ B-freq = 0.039733  C-freq = 0.079467     beta(X;Z,Y) =      0.00000000
@ B-freq = 0.039733  C-freq = 0.079467     beta(Y;Z,Y) =     11.96304001
@ B-freq = 0.039733  C-freq = 0.079467     beta(Z;Z,Y) =     -0.00071041
@ B-freq = 0.059600  C-freq = 0.079467     beta(X;Z,Y) =      0.00000000
@ B-freq = 0.059600  C-freq = 0.079467     beta(Y;Z,Y) =     12.35261086
@ B-freq = 0.059600  C-freq = 0.079467     beta(Z;Z,Y) =     -0.00076912
@ B-freq = 0.079467  C-freq = 0.079467     beta(X;Z,Y) =      0.00000000
@ B-freq = 0.079467  C-freq = 0.079467     beta(Y;Z,Y) =     12.85619055
@ B-freq = 0.079467  C-freq = 0.079467     beta(Z;Z,Y) =     -0.00084607
@ B-freq = 0.000000  C-freq = 0.000000     beta(X;X,Z) = beta(Z,X,X)
@ B-freq = 0.000000  C-freq = 0.000000     beta(Y;X,Z) = beta(Z,Y,X)
@ B-freq = 0.000000  C-freq = 0.000000     beta(Z;X,Z) = beta(Z,Z,X)
@ B-freq = 0.019867  C-freq = 0.000000     beta(X;X,Z) = beta(X,Z,X)
@ B-freq = 0.019867  C-freq = 0.000000     beta(Y;X,Z) = beta(Y,Z,X)
@ B-freq = 0.019867  C-freq = 0.000000     beta(Z;X,Z) = beta(Z,Z,X)
@ B-freq = 0.039733  C-freq = 0.000000     beta(X;X,Z) = beta(X,Z,X)
@ B-freq = 0.039733  C-freq = 0.000000     beta(Y;X,Z) = beta(Y,Z,X)
@ B-freq = 0.039733  C-freq = 0.000000     beta(Z;X,Z) = beta(Z,Z,X)
@ B-freq = 0.059600  C-freq = 0.000000     beta(X;X,Z) = beta(X,Z,X)
@ B-freq = 0.059600  C-freq = 0.000000     beta(Y;X,Z) = beta(Y,Z,X)
@ B-freq = 0.059600  C-freq = 0.000000     beta(Z;X,Z) = beta(Z,Z,X)
@ B-freq = 0.079467  C-freq = 0.000000     beta(X;X,Z) = beta(X,Z,X)
@ B-freq = 0.079467  C-freq = 0.000000     beta(Y;X,Z) = beta(Y,Z,X)
@ B-freq = 0.079467  C-freq = 0.000000     beta(Z;X,Z) = beta(Z,Z,X)
@ B-freq = 0.000000  C-freq = 0.000000     beta(X;Y,Z) = beta(Z,Y,X)
@ B-freq = 0.000000  C-freq = 0.000000     beta(Y;Y,Z) = beta(Z,Y,Y)
@ B-freq = 0.000000  C-freq = 0.000000     beta(Z;Y,Z) = beta(Z,Z,Y)
@ B-freq = 0.019867  C-freq = 0.000000     beta(X;Y,Z) = beta(X,Z,Y)
@ B-freq = 0.019867  C-freq = 0.000000     beta(Y;Y,Z) = beta(Y,Z,Y)
@ B-freq = 0.019867  C-freq = 0.000000     beta(Z;Y,Z) = beta(Z,Z,Y)
@ B-freq = 0.039733  C-freq = 0.000000     beta(X;Y,Z) = beta(X,Z,Y)
@ B-freq = 0.039733  C-freq = 0.000000     beta(Y;Y,Z) = beta(Y,Z,Y)
@ B-freq = 0.039733  C-freq = 0.000000     beta(Z;Y,Z) = beta(Z,Z,Y)
@ B-freq = 0.059600  C-freq = 0.000000     beta(X;Y,Z) = beta(X,Z,Y)
@ B-freq = 0.059600  C-freq = 0.000000     beta(Y;Y,Z) = beta(Y,Z,Y)
@ B-freq = 0.059600  C-freq = 0.000000     beta(Z;Y,Z) = beta(Z,Z,Y)
@ B-freq = 0.079467  C-freq = 0.000000     beta(X;Y,Z) = beta(X,Z,Y)
@ B-freq = 0.079467  C-freq = 0.000000     beta(Y;Y,Z) = beta(Y,Z,Y)
@ B-freq = 0.079467  C-freq = 0.000000     beta(Z;Y,Z) = beta(Z,Z,Y)
@ B-freq = 0.000000  C-freq = 0.000000     beta(X;Z,Z) = beta(Z,Z,X)
@ B-freq = 0.000000  C-freq = 0.000000     beta(Y;Z,Z) = beta(Z,Z,Y)
@ B-freq = 0.000000  C-freq = 0.000000     beta(X;Z,Z) =      0.00000000
@ B-freq = 0.000000  C-freq = 0.000000     beta(Y;Z,Z) =     -0.00057375
@ B-freq = 0.000000  C-freq = 0.000000     beta(Z;Z,Z) =      7.18479446
@ B-freq = 0.019867  C-freq = 0.000000     beta(X;Z,Z) =      0.00000000
@ B-freq = 0.019867  C-freq = 0.000000     beta(Y;Z,Z) =     -0.00057747
@ B-freq = 0.019867  C-freq = 0.000000     beta(Z;Z,Z) =      7.21380740
@ B-freq = 0.039733  C-freq = 0.000000     beta(X;Z,Z) =      0.00000000
@ B-freq = 0.039733  C-freq = 0.000000     beta(Y;Z,Z) =     -0.00058886
@ B-freq = 0.039733  C-freq = 0.000000     beta(Z;Z,Z) =      7.30213866
@ B-freq = 0.059600  C-freq = 0.000000     beta(X;Z,Z) =      0.00000000
@ B-freq = 0.059600  C-freq = 0.000000     beta(Y;Z,Z) =     -0.00060859
@ B-freq = 0.059600  C-freq = 0.000000     beta(Z;Z,Z) =      7.45380518
@ B-freq = 0.079467  C-freq = 0.000000     beta(X;Z,Z) =      0.00000000
@ B-freq = 0.079467  C-freq = 0.000000     beta(Y;Z,Z) =     -0.00063787
@ B-freq = 0.079467  C-freq = 0.000000     beta(Z;Z,Z) =      7.67599418
@ B-freq = 0.000000  C-freq = 0.019867     beta(X;X,Z) = beta(X,Z,X)
@ B-freq = 0.000000  C-freq = 0.019867     beta(Y;X,Z) = beta(Y,Z,X)
@ B-freq = 0.000000  C-freq = 0.019867     beta(Z;X,Z) = beta(Z,Z,X)
@ B-freq = 0.019867  C-freq = 0.019867     beta(X;X,Z) = beta(X,Z,X)
@ B-freq = 0.019867  C-freq = 0.019867     beta(Y;X,Z) = beta(Y,Z,X)
@ B-freq = 0.019867  C-freq = 0.019867     beta(Z;X,Z) = beta(Z,Z,X)
@ B-freq = 0.039733  C-freq = 0.019867     beta(X;X,Z) = beta(X,Z,X)
@ B-freq = 0.039733  C-freq = 0.019867     beta(Y;X,Z) = beta(Y,Z,X)
@ B-freq = 0.039733  C-freq = 0.019867     beta(Z;X,Z) = beta(Z,Z,X)
@ B-freq = 0.059600  C-freq = 0.019867     beta(X;X,Z) = beta(X,Z,X)
@ B-freq = 0.059600  C-freq = 0.019867     beta(Y;X,Z) = beta(Y,Z,X)
@ B-freq = 0.059600  C-freq = 0.019867     beta(Z;X,Z) = beta(Z,Z,X)
@ B-freq = 0.079467  C-freq = 0.019867     beta(X;X,Z) = beta(X,Z,X)
@ B-freq = 0.079467  C-freq = 0.019867     beta(Y;X,Z) = beta(Y,Z,X)
@ B-freq = 0.079467  C-freq = 0.019867     beta(Z;X,Z) = beta(Z,Z,X)
@ B-freq = 0.000000  C-freq = 0.019867     beta(X;Y,Z) = beta(X,Z,Y)
@ B-freq = 0.000000  C-freq = 0.019867     beta(Y;Y,Z) = beta(Y,Z,Y)
@ B-freq = 0.000000  C-freq = 0.019867     beta(Z;Y,Z) = beta(Z,Z,Y)
@ B-freq = 0.019867  C-freq = 0.019867     beta(X;Y,Z) = beta(X,Z,Y)
@ B-freq = 0.019867  C-freq = 0.019867     beta(Y;Y,Z) = beta(Y,Z,Y)
@ B-freq = 0.019867  C-freq = 0.019867     beta(Z;Y,Z) = beta(Z,Z,Y)
@ B-freq = 0.039733  C-freq = 0.019867     beta(X;Y,Z) = beta(X,Z,Y)
@ B-freq = 0.039733  C-freq = 0.019867     beta(Y;Y,Z) = beta(Y,Z,Y)
@ B-freq = 0.039733  C-freq = 0.019867     beta(Z;Y,Z) = beta(Z,Z,Y)
@ B-freq = 0.059600  C-freq = 0.019867     beta(X;Y,Z) = beta(X,Z,Y)
@ B-freq = 0.059600  C-freq = 0.019867     beta(Y;Y,Z) = beta(Y,Z,Y)
@ B-freq = 0.059600  C-freq = 0.019867     beta(Z;Y,Z) = beta(Z,Z,Y)
@ B-freq = 0.079467  C-freq = 0.019867     beta(X;Y,Z) = beta(X,Z,Y)
@ B-freq = 0.079467  C-freq = 0.019867     beta(Y;Y,Z) = beta(Y,Z,Y)
@ B-freq = 0.079467  C-freq = 0.019867     beta(Z;Y,Z) = beta(Z,Z,Y)
@ B-freq = 0.000000  C-freq = 0.019867     beta(X;Z,Z) = beta(X,Z,Z)
@ B-freq = 0.000000  C-freq = 0.019867     beta(Y;Z,Z) = beta(Y,Z,Z)
@ B-freq = 0.000000  C-freq = 0.019867     beta(Z;Z,Z) = beta(Z,Z,Z)
@ B-freq = 0.019867  C-freq = 0.019867     beta(X;Z,Z) =      0.00000000
@ B-freq = 0.019867  C-freq = 0.019867     beta(Y;Z,Z) =     -0.00058335
@ B-freq = 0.019867  C-freq = 0.019867     beta(Z;Z,Z) =      7.27247758
@ B-freq = 0.039733  C-freq = 0.019867     beta(X;Z,Z) =      0.00000000
@ B-freq = 0.039733  C-freq = 0.019867     beta(Y;Z,Z) =     -0.00059742
@ B-freq = 0.039733  C-freq = 0.019867     beta(Z;Z,Z) =      7.39246044
@ B-freq = 0.059600  C-freq = 0.019867     beta(X;Z,Z) =      0.00000000
@ B-freq = 0.059600  C-freq = 0.019867     beta(Y;Z,Z) =     -0.00062073
@ B-freq = 0.059600  C-freq = 0.019867     beta(Z;Z,Z) =      7.57933039
@ B-freq = 0.079467  C-freq = 0.019867     beta(X;Z,Z) =      0.00000000
@ B-freq = 0.079467  C-freq = 0.019867     beta(Y;Z,Z) =     -0.00065497
@ B-freq = 0.079467  C-freq = 0.019867     beta(Z;Z,Z) =      7.84222958
@ B-freq = 0.000000  C-freq = 0.039733     beta(X;X,Z) = beta(X,Z,X)
@ B-freq = 0.000000  C-freq = 0.039733     beta(Y;X,Z) = beta(Y,Z,X)
@ B-freq = 0.000000  C-freq = 0.039733     beta(Z;X,Z) = beta(Z,Z,X)
@ B-freq = 0.019867  C-freq = 0.039733     beta(X;X,Z) = beta(X,Z,X)
@ B-freq = 0.019867  C-freq = 0.039733     beta(Y;X,Z) = beta(Y,Z,X)
@ B-freq = 0.019867  C-freq = 0.039733     beta(Z;X,Z) = beta(Z,Z,X)
@ B-freq = 0.039733  C-freq = 0.039733     beta(X;X,Z) = beta(X,Z,X)
@ B-freq = 0.039733  C-freq = 0.039733     beta(Y;X,Z) = beta(Y,Z,X)
@ B-freq = 0.039733  C-freq = 0.039733     beta(Z;X,Z) = beta(Z,Z,X)
@ B-freq = 0.059600  C-freq = 0.039733     beta(X;X,Z) = beta(X,Z,X)
@ B-freq = 0.059600  C-freq = 0.039733     beta(Y;X,Z) = beta(Y,Z,X)
@ B-freq = 0.059600  C-freq = 0.039733     beta(Z;X,Z) = beta(Z,Z,X)
@ B-freq = 0.079467  C-freq = 0.039733     beta(X;X,Z) = beta(X,Z,X)
@ B-freq = 0.079467  C-freq = 0.039733     beta(Y;X,Z) = beta(Y,Z,X)
@ B-freq = 0.079467  C-freq = 0.039733     beta(Z;X,Z) = beta(Z,Z,X)
@ B-freq = 0.000000  C-freq = 0.039733     beta(X;Y,Z) = beta(X,Z,Y)
@ B-freq = 0.000000  C-freq = 0.039733     beta(Y;Y,Z) = beta(Y,Z,Y)
@ B-freq = 0.000000  C-freq = 0.039733     beta(Z;Y,Z) = beta(Z,Z,Y)
@ B-freq = 0.019867  C-freq = 0.039733     beta(X;Y,Z) = beta(X,Z,Y)
@ B-freq = 0.019867  C-freq = 0.039733     beta(Y;Y,Z) = beta(Y,Z,Y)
@ B-freq = 0.019867  C-freq = 0.039733     beta(Z;Y,Z) = beta(Z,Z,Y)
@ B-freq = 0.039733  C-freq = 0.039733     beta(X;Y,Z) = beta(X,Z,Y)
@ B-freq = 0.039733  C-freq = 0.039733     beta(Y;Y,Z) = beta(Y,Z,Y)
@ B-freq = 0.039733  C-freq = 0.039733     beta(Z;Y,Z) = beta(Z,Z,Y)
@ B-freq = 0.059600  C-freq = 0.039733     beta(X;Y,Z) = beta(X,Z,Y)
@ B-freq = 0.059600  C-freq = 0.039733     beta(Y;Y,Z) = beta(Y,Z,Y)
@ B-freq = 0.059600  C-freq = 0.039733     beta(Z;Y,Z) = beta(Z,Z,Y)
@ B-freq = 0.079467  C-freq = 0.039733     beta(X;Y,Z) = beta(X,Z,Y)
@ B-freq = 0.079467  C-freq = 0.039733     beta(Y;Y,Z) = beta(Y,Z,Y)
@ B-freq = 0.079467  C-freq = 0.039733     beta(Z;Y,Z) = beta(Z,Z,Y)
@ B-freq = 0.000000  C-freq = 0.039733     beta(X;Z,Z) = beta(X,Z,Z)
@ B-freq = 0.000000  C-freq = 0.039733     beta(Y;Z,Z) = beta(Y,Z,Z)
@ B-freq = 0.000000  C-freq = 0.039733     beta(Z;Z,Z) = beta(Z,Z,Z)
@ B-freq = 0.019867  C-freq = 0.039733     beta(X;Z,Z) = beta(X,Z,Z)
@ B-freq = 0.019867  C-freq = 0.039733     beta(Y;Z,Z) = beta(Y,Z,Z)
@ B-freq = 0.019867  C-freq = 0.039733     beta(Z;Z,Z) = beta(Z,Z,Z)
@ B-freq = 0.039733  C-freq = 0.039733     beta(X;Z,Z) =      0.00000000
@ B-freq = 0.039733  C-freq = 0.039733     beta(Y;Z,Z) =     -0.00061510
@ B-freq = 0.039733  C-freq = 0.039733     beta(Z;Z,Z) =      7.54760503
@ B-freq = 0.059600  C-freq = 0.039733     beta(X;Z,Z) =      0.00000000
@ B-freq = 0.059600  C-freq = 0.039733     beta(Y;Z,Z) =     -0.00064346
@ B-freq = 0.059600  C-freq = 0.039733     beta(Z;Z,Z) =      7.77502705
@ B-freq = 0.079467  C-freq = 0.039733     beta(X;Z,Z) =      0.00000000
@ B-freq = 0.079467  C-freq = 0.039733     beta(Y;Z,Z) =     -0.00068479
@ B-freq = 0.079467  C-freq = 0.039733     beta(Z;Z,Z) =      8.08636033
@ B-freq = 0.000000  C-freq = 0.059600     beta(X;X,Z) = beta(X,Z,X)
@ B-freq = 0.000000  C-freq = 0.059600     beta(Y;X,Z) = beta(Y,Z,X)
@ B-freq = 0.000000  C-freq = 0.059600     beta(Z;X,Z) = beta(Z,Z,X)
@ B-freq = 0.019867  C-freq = 0.059600     beta(X;X,Z) = beta(X,Z,X)
@ B-freq = 0.019867  C-freq = 0.059600     beta(Y;X,Z) = beta(Y,Z,X)
@ B-freq = 0.019867  C-freq = 0.059600     beta(Z;X,Z) = beta(Z,Z,X)
@ B-freq = 0.039733  C-freq = 0.059600     beta(X;X,Z) = beta(X,Z,X)
@ B-freq = 0.039733  C-freq = 0.059600     beta(Y;X,Z) = beta(Y,Z,X)
@ B-freq = 0.039733  C-freq = 0.059600     beta(Z;X,Z) = beta(Z,Z,X)
@ B-freq = 0.059600  C-freq = 0.059600     beta(X;X,Z) = beta(X,Z,X)
@ B-freq = 0.059600  C-freq = 0.059600     beta(Y;X,Z) = beta(Y,Z,X)
@ B-freq = 0.059600  C-freq = 0.059600     beta(Z;X,Z) = beta(Z,Z,X)
@ B-freq = 0.079467  C-freq = 0.059600     beta(X;X,Z) = beta(X,Z,X)
@ B-freq = 0.079467  C-freq = 0.059600     beta(Y;X,Z) = beta(Y,Z,X)
@ B-freq = 0.079467  C-freq = 0.059600     beta(Z;X,Z) = beta(Z,Z,X)
@ B-freq = 0.000000  C-freq = 0.059600     beta(X;Y,Z) = beta(X,Z,Y)
@ B-freq = 0.000000  C-freq = 0.059600     beta(Y;Y,Z) = beta(Y,Z,Y)
@ B-freq = 0.000000  C-freq = 0.059600     beta(Z;Y,Z) = beta(Z,Z,Y)
@ B-freq = 0.019867  C-freq = 0.059600     beta(X;Y,Z) = beta(X,Z,Y)
@ B-freq = 0.019867  C-freq = 0.059600     beta(Y;Y,Z) = beta(Y,Z,Y)
@ B-freq = 0.019867  C-freq = 0.059600     beta(Z;Y,Z) = beta(Z,Z,Y)
@ B-freq = 0.039733  C-freq = 0.059600     beta(X;Y,Z) = beta(X,Z,Y)
@ B-freq = 0.039733  C-freq = 0.059600     beta(Y;Y,Z) = beta(Y,Z,Y)
@ B-freq = 0.039733  C-freq = 0.059600     beta(Z;Y,Z) = beta(Z,Z,Y)
@ B-freq = 0.059600  C-freq = 0.059600     beta(X;Y,Z) = beta(X,Z,Y)
@ B-freq = 0.059600  C-freq = 0.059600     beta(Y;Y,Z) = beta(Y,Z,Y)
@ B-freq = 0.059600  C-freq = 0.059600     beta(Z;Y,Z) = beta(Z,Z,Y)
@ B-freq = 0.079467  C-freq = 0.059600     beta(X;Y,Z) = beta(X,Z,Y)
@ B-freq = 0.079467  C-freq = 0.059600     beta(Y;Y,Z) = beta(Y,Z,Y)
@ B-freq = 0.079467  C-freq = 0.059600     beta(Z;Y,Z) = beta(Z,Z,Y)
@ B-freq = 0.000000  C-freq = 0.059600     beta(X;Z,Z) = beta(X,Z,Z)
@ B-freq = 0.000000  C-freq = 0.059600     beta(Y;Z,Z) = beta(Y,Z,Z)
@ B-freq = 0.000000  C-freq = 0.059600     beta(Z;Z,Z) = beta(Z,Z,Z)
@ B-freq = 0.019867  C-freq = 0.059600     beta(X;Z,Z) = beta(X,Z,Z)
@ B-freq = 0.019867  C-freq = 0.059600     beta(Y;Z,Z) = beta(Y,Z,Z)
@ B-freq = 0.019867  C-freq = 0.059600     beta(Z;Z,Z) = beta(Z,Z,Z)
@ B-freq = 0.039733  C-freq = 0.059600     beta(X;Z,Z) = beta(X,Z,Z)
@ B-freq = 0.039733  C-freq = 0.059600     beta(Y;Z,Z) = beta(Y,Z,Z)
@ B-freq = 0.039733  C-freq = 0.059600     beta(Z;Z,Z) = beta(Z,Z,Z)
@ B-freq = 0.059600  C-freq = 0.059600     beta(X;Z,Z) =      0.00000000
@ B-freq = 0.059600  C-freq = 0.059600     beta(Y;Z,Z) =     -0.00067894
@ B-freq = 0.059600  C-freq = 0.059600     beta(Z;Z,Z) =      8.05074598
@ B-freq = 0.079467  C-freq = 0.059600     beta(X;Z,Z) =      0.00000000
@ B-freq = 0.079467  C-freq = 0.059600     beta(Y;Z,Z) =     -0.00073034
@ B-freq = 0.079467  C-freq = 0.059600     beta(Z;Z,Z) =      8.42143828
@ B-freq = 0.000000  C-freq = 0.079467     beta(X;X,Z) = beta(X,Z,X)
@ B-freq = 0.000000  C-freq = 0.079467     beta(Y;X,Z) = beta(Y,Z,X)
@ B-freq = 0.000000  C-freq = 0.079467     beta(Z;X,Z) = beta(Z,Z,X)
@ B-freq = 0.019867  C-freq = 0.079467     beta(X;X,Z) = beta(X,Z,X)
@ B-freq = 0.019867  C-freq = 0.079467     beta(Y;X,Z) = beta(Y,Z,X)
@ B-freq = 0.019867  C-freq = 0.079467     beta(Z;X,Z) = beta(Z,Z,X)
@ B-freq = 0.039733  C-freq = 0.079467     beta(X;X,Z) = beta(X,Z,X)
@ B-freq = 0.039733  C-freq = 0.079467     beta(Y;X,Z) = beta(Y,Z,X)
@ B-freq = 0.039733  C-freq = 0.079467     beta(Z;X,Z) = beta(Z,Z,X)
@ B-freq = 0.059600  C-freq = 0.079467     beta(X;X,Z) = beta(X,Z,X)
@ B-freq = 0.059600  C-freq = 0.079467     beta(Y;X,Z) = beta(Y,Z,X)
@ B-freq = 0.059600  C-freq = 0.079467     beta(Z;X,Z) = beta(Z,Z,X)
@ B-freq = 0.079467  C-freq = 0.079467     beta(X;X,Z) = beta(X,Z,X)
@ B-freq = 0.079467  C-freq = 0.079467     beta(Y;X,Z) = beta(Y,Z,X)
@ B-freq = 0.079467  C-freq = 0.079467     beta(Z;X,Z) = beta(Z,Z,X)
@ B-freq = 0.000000  C-freq = 0.079467     beta(X;Y,Z) = beta(X,Z,Y)
@ B-freq = 0.000000  C-freq = 0.079467     beta(Y;Y,Z) = beta(Y,Z,Y)
@ B-freq = 0.000000  C-freq = 0.079467     beta(Z;Y,Z) = beta(Z,Z,Y)
@ B-freq = 0.019867  C-freq = 0.079467     beta(X;Y,Z) = beta(X,Z,Y)
@ B-freq = 0.019867  C-freq = 0.079467     beta(Y;Y,Z) = beta(Y,Z,Y)
@ B-freq = 0.019867  C-freq = 0.079467     beta(Z;Y,Z) = beta(Z,Z,Y)
@ B-freq = 0.039733  C-freq = 0.079467     beta(X;Y,Z) = beta(X,Z,Y)
@ B-freq = 0.039733  C-freq = 0.079467     beta(Y;Y,Z) = beta(Y,Z,Y)
@ B-freq = 0.039733  C-freq = 0.079467     beta(Z;Y,Z) = beta(Z,Z,Y)
@ B-freq = 0.059600  C-freq = 0.079467     beta(X;Y,Z) = beta(X,Z,Y)
@ B-freq = 0.059600  C-freq = 0.079467     beta(Y;Y,Z) = beta(Y,Z,Y)
@ B-freq = 0.059600  C-freq = 0.079467     beta(Z;Y,Z) = beta(Z,Z,Y)
@ B-freq = 0.079467  C-freq = 0.079467     beta(X;Y,Z) = beta(X,Z,Y)
@ B-freq = 0.079467  C-freq = 0.079467     beta(Y;Y,Z) = beta(Y,Z,Y)
@ B-freq = 0.079467  C-freq = 0.079467     beta(Z;Y,Z) = beta(Z,Z,Y)
@ B-freq = 0.000000  C-freq = 0.079467     beta(X;Z,Z) = beta(X,Z,Z)
@ B-freq = 0.000000  C-freq = 0.079467     beta(Y;Z,Z) = beta(Y,Z,Z)
@ B-freq = 0.000000  C-freq = 0.079467     beta(Z;Z,Z) = beta(Z,Z,Z)
@ B-freq = 0.019867  C-freq = 0.079467     beta(X;Z,Z) = beta(X,Z,Z)
@ B-freq = 0.019867  C-freq = 0.079467     beta(Y;Z,Z) = beta(Y,Z,Z)
@ B-freq = 0.019867  C-freq = 0.079467     beta(Z;Z,Z) = beta(Z,Z,Z)
@ B-freq = 0.039733  C-freq = 0.079467     beta(X;Z,Z) = beta(X,Z,Z)
@ B-freq = 0.039733  C-freq = 0.079467     beta(Y;Z,Z) = beta(Y,Z,Z)
@ B-freq = 0.039733  C-freq = 0.079467     beta(Z;Z,Z) = beta(Z,Z,Z)
@ B-freq = 0.059600  C-freq = 0.079467     beta(X;Z,Z) = beta(X,Z,Z)
@ B-freq = 0.059600  C-freq = 0.079467     beta(Y;Z,Z) = beta(Y,Z,Z)
@ B-freq = 0.059600  C-freq = 0.079467     beta(Z;Z,Z) = beta(Z,Z,Z)
@ B-freq = 0.079467  C-freq = 0.079467     beta(X;Z,Z) =      0.00000000
@ B-freq = 0.079467  C-freq = 0.079467     beta(Y;Z,Z) =     -0.00079591
@ B-freq = 0.079467  C-freq = 0.079467     beta(Z;Z,Z) =      8.86701151

  Total CPU  time used in RESPONSE:  51.82 seconds
  Total wall time used in RESPONSE:  51.91 seconds


                   .-------------------------------------------.
                   | End of Dynamic Property Section (RESPONS) |
                   `-------------------------------------------'

  Total CPU  time used in DALTON:  53.99 seconds
  Total wall time used in DALTON:  54.08 seconds

 
     Date and time (Linux)  : Thu Sep  7 21:33:23 2023
     Host name              : sn-mem                                  
