

     ************************************************************************
     *************** Dalton - An Electronic Structure Program ***************
     ************************************************************************

    This is output from DALTON release Dalton2020.0 (2020)
         ( Web site: http://daltonprogram.org )

   ----------------------------------------------------------------------------

    NOTE:
     
    Dalton is an experimental code for the evaluation of molecular
    properties using (MC)SCF, DFT, CI, and CC wave functions.
    The authors accept no responsibility for the performance of
    the code or for the correctness of the results.
     
    The code (in whole or part) is provided under a licence and
    is not to be reproduced for further distribution without
    the written permission of the authors or their representatives.
     
    See the home page "http://daltonprogram.org" for further information.
     
    If results obtained with this code are published,
    the appropriate citations would be both of:
     
       K. Aidas, C. Angeli, K. L. Bak, V. Bakken, R. Bast,
       L. Boman, O. Christiansen, R. Cimiraglia, S. Coriani,
       P. Dahle, E. K. Dalskov, U. Ekstroem,
       T. Enevoldsen, J. J. Eriksen, P. Ettenhuber, B. Fernandez,
       L. Ferrighi, H. Fliegl, L. Frediani, K. Hald, A. Halkier,
       C. Haettig, H. Heiberg, T. Helgaker, A. C. Hennum,
       H. Hettema, E. Hjertenaes, S. Hoest, I.-M. Hoeyvik,
       M. F. Iozzi, B. Jansik, H. J. Aa. Jensen, D. Jonsson,
       P. Joergensen, J. Kauczor, S. Kirpekar,
       T. Kjaergaard, W. Klopper, S. Knecht, R. Kobayashi, H. Koch,
       J. Kongsted, A. Krapp, K. Kristensen, A. Ligabue,
       O. B. Lutnaes, J. I. Melo, K. V. Mikkelsen, R. H. Myhre,
       C. Neiss, C. B. Nielsen, P. Norman, J. Olsen,
       J. M. H. Olsen, A. Osted, M. J. Packer, F. Pawlowski,
       T. B. Pedersen, P. F. Provasi, S. Reine, Z. Rinkevicius,
       T. A. Ruden, K. Ruud, V. Rybkin, P. Salek, C. C. M. Samson,
       A. Sanchez de Meras, T. Saue, S. P. A. Sauer,
       B. Schimmelpfennig, K. Sneskov, A. H. Steindal,
       K. O. Sylvester-Hvid, P. R. Taylor, A. M. Teale,
       E. I. Tellgren, D. P. Tew, A. J. Thorvaldsen, L. Thoegersen,
       O. Vahtras, M. A. Watson, D. J. D. Wilson, M. Ziolkowski
       and H. Agren,
       "The Dalton quantum chemistry program system",
       WIREs Comput. Mol. Sci. 2014, 4:269–284 (doi: 10.1002/wcms.1172)
     
    and
     
       Dalton, a molecular electronic structure program,
       Release Dalton2020.0 (2020), see http://daltonprogram.org
   ----------------------------------------------------------------------------

    Authors in alphabetical order (Major contribution(s) in parenthesis):

  Kestutis Aidas,           Vilnius University,           Lithuania   (QM/MM)
  Celestino Angeli,         University of Ferrara,        Italy       (NEVPT2)
  Keld L. Bak,              UNI-C,                        Denmark     (AOSOPPA, non-adiabatic coupling, magnetic properties)
  Vebjoern Bakken,          University of Oslo,           Norway      (DALTON; geometry optimizer, symmetry detection)
  Radovan Bast,             UiT The Arctic U. of Norway,  Norway      (DALTON installation and execution frameworks)
  Pablo Baudin,             University of Valencia,       Spain       (Cholesky excitation energies)
  Linus Boman,              NTNU,                         Norway      (Cholesky decomposition and subsystems)
  Bruno N. Cabral Tenorio,  Technical Univ. of Denmark,   Denmark     (Lanczos-based CC methods)
  Ove Christiansen,         Aarhus University,            Denmark     (CC module)
  Renzo Cimiraglia,         University of Ferrara,        Italy       (NEVPT2)
  Sonia Coriani,            Technical Univ. of Denmark,   Denmark     (CC and RESPONS modules)
  Janusz Cukras,            University of Warsaw,         Poland      (MChD in RESPONS)
  Paal Dahle,               University of Oslo,           Norway      (Parallelization)
  Erik K. Dalskov,          UNI-C,                        Denmark     (SOPPA)
  Thomas Enevoldsen,        Univ. of Southern Denmark,    Denmark     (SOPPA)
  Janus J. Eriksen,         Aarhus University,            Denmark     (Polarizable embedding, TDA)
  Rasmus Faber,             Technical Univ. of Denmark,   Denmark     (Vib.avg. NMR w. SOPPA, parallel AO-SOPPA, CVS-CC and EOMCC)
  Tobias Fahleson,          KTH Stockholm,                Sweden      (Damped cubic response)
  Berta Fernandez,          U. of Santiago de Compostela, Spain       (Doublet spin, ESR in RESPONS)
  Lara Ferrighi,            Aarhus University,            Denmark     (PCM Cubic response)
  Heike Fliegl,             University of Oslo,           Norway      (CCSD(R12))
  Luca Frediani,            UiT The Arctic U. of Norway,  Norway      (PCM)
  Emmanuel Fromager,        Univ. Strasbourg,             France      (MC-srDFT)
  Bin Gao,                  UiT The Arctic U. of Norway,  Norway      (Gen1Int library)
  Andre S. P. Gomes,        CNRS/Universite de Lille,     France      (Frozen density embedding)
  Christof Haettig,         Ruhr-University Bochum,       Germany     (CC module)
  Kasper Hald,              Aarhus University,            Denmark     (CC module)
  Asger Halkier,            Aarhus University,            Denmark     (CC module)
  Frederik Beyer Hansen,    University of Copenhagen,     Denmark     (Parallel AO-SOPPA)
  Erik D. Hedegaard,        Univ. of Southern Denmark,    Denmark     (Polarizable embedding, QM/MM, and MC-srDFT)
  Hanne Heiberg,            University of Oslo,           Norway      (Geometry analysis, selected one-electron integrals)
  Trygve Helgaker,          University of Oslo,           Norway      (DALTON; ABACUS, ERI, DFT modules, London, and much more)
  Alf Christian Hennum,     University of Oslo,           Norway      (Parity violation)
  Hinne Hettema,            University of Auckland,       New Zealand (Quadratic response in RESPONS; SIRIUS supersymmetry)
  Eirik Hjertenaes,         NTNU,                         Norway      (Cholesky decomposition)
  Pi A. B. Haase,           University of Copenhagen,     Denmark     (Triplet AO-SOPPA)
  Maria Francesca Iozzi,    University of Oslo,           Norway      (RPA)
  Christoph Jacob           TU Braunschweig               Germany     (Frozen density embedding)
  Brano Jansik              Technical Univ. of Ostrava    Czech Rep.  (DFT cubic response)
  Hans Joergen Aa. Jensen,  Univ. of Southern Denmark,    Denmark     (DALTON; SIRIUS, RESPONS, ABACUS, MC-srDFT, and much more)
  Dan Jonsson,              UiT The Arctic U. of Norway,  Norway      (Cubic response in RESPONS module)
  Poul Joergensen,          Aarhus University,            Denmark     (RESPONS, ABACUS, and CC modules)
  Maciej Kaminski,          University of Warsaw,         Poland      (CPPh in RESPONS)
  Joanna Kauczor,           Linkoeping University,        Sweden      (Complex polarization propagator (CPP) module)
  Sheela Kirpekar,          Univ. of Southern Denmark,    Denmark     (Mass-velocity & Darwin integrals)
  Erik Kjellgren,           Univ. of Southern Denmark,    Denmark     (MC-srDFT)
  Wim Klopper,              KIT Karlsruhe,                Germany     (R12 code in CC, SIRIUS, and ABACUS modules)
  Stefan Knecht,            ETH Zurich,                   Switzerland (Parallel CI and MCSCF, MC-srDFT)
  Rika Kobayashi,           Australian National Univ.,    Australia   (DIIS in CC, London in MCSCF)
  Henrik Koch,              NTNU,                         Norway      (CC module, Cholesky decomposition)
  Jacob Kongsted,           Univ. of Southern Denmark,    Denmark     (Polarizable embedding, polarizable density embedding, QM/MM)
  Andrea Ligabue,           University of Modena,         Italy       (CTOCD, AOSOPPA)
  Nanna H. List             Univ. of Southern Denmark,    Denmark     (Polarizable embedding)
  Ola B. Lutnaes,           University of Oslo,           Norway      (DFT Hessian)
  Juan I. Melo,             University of Buenos Aires,   Argentina   (LRESC, Relativistic Effects on NMR Shieldings)
  Kurt V. Mikkelsen,        University of Copenhagen,     Denmark     (MC-SCRF and QM/MM)
  Rolf H. Myhre,            NTNU,                         Norway      (Subsystems and CC3)
  Christian Neiss,          Univ. Erlangen-Nuernberg,     Germany     (CCSD(R12))
  Christian B. Nielsen,     University of Copenhagen,     Denmark     (QM/MM)
  Patrick Norman,           KTH Stockholm,                Sweden      (Cubic response and complex frequency response in RESPONS)
  Jeppe Olsen,              Aarhus University,            Denmark     (SIRIUS CI/density modules)
  Jogvan Magnus H. Olsen,   Aarhus University,            Denmark     (Polarizable embedding and polarizable density embedding)
  Anders Osted,             Copenhagen University,        Denmark     (QM/MM)
  Martin J. Packer,         University of Sheffield,      UK          (SOPPA)
  Filip Pawlowski,          Kazimierz Wielki University,  Poland      (CC3)
  Morten N. Pedersen,       Univ. of Southern Denmark,    Denmark     (Polarizable embedding)
  Thomas B. Pedersen,       University of Oslo,           Norway      (Cholesky decomposition)
  Patricio F. Provasi,      University of Northeastern,   Argentina   (Analysis of coupling constants in localized orbitals)
  Peter Reinholdt,          Univ. of Southern Denmark,    Denmark     (Polarizable embedding and polarizable density embedding)
  Zilvinas Rinkevicius,     KTH Stockholm,                Sweden      (open-shell DFT, ESR)
  Elias Rudberg,            KTH Stockholm,                Sweden      (DFT grid and basis info)
  Torgeir A. Ruden,         University of Oslo,           Norway      (Numerical derivatives in ABACUS)
  Kenneth Ruud,             UiT The Arctic U. of Norway,  Norway      (DALTON; ABACUS magnetic properties and much more)
  Pawel Salek,              KTH Stockholm,                Sweden      (DALTON; DFT code)
  Claire C. M. Samson       University of Karlsruhe       Germany     (Boys localization, r12 integrals in ERI)
  Alfredo Sanchez de Meras, University of Valencia,       Spain       (CC module, Cholesky decomposition)
  Trond Saue,               Paul Sabatier University,     France      (direct Fock matrix construction)
  Stephan P. A. Sauer,      University of Copenhagen,     Denmark     (SOPPA(CCSD), SOPPA prop., AOSOPPA, vibrational g-factors)
  Bernd Schimmelpfennig,    Forschungszentrum Karlsruhe,  Germany     (AMFI module)
  Anna K. Schnack-Petersen, University of Copenhagen,     Denmark     (RPA(D) and HRPA(D) properties in AOSOPPA)
  Kristian Sneskov,         Aarhus University,            Denmark     (Polarizable embedding, QM/MM)
  Arnfinn H. Steindal,      UiT The Arctic U. of Norway,  Norway      (parallel QM/MM, polarizable embedding)
  Casper Steinmann,         Aalborg University,           Denmark     (QFIT, polarizable embedding)
  K. O. Sylvester-Hvid,     University of Copenhagen,     Denmark     (MC-SCRF)
  Peter R. Taylor,          VLSCI/Univ. of Melbourne,     Australia   (Symmetry handling ABACUS, integral transformation)
  Andrew M. Teale,          University of Nottingham,     England     (DFT-AC, DFT-D)
  David P. Tew,             University of Bristol,        England     (CCSD(R12))
  Julien Toulouse,          Sorbonne Univ.,               France      (MC-srDFT)
  Olav Vahtras,             KTH Stockholm,                Sweden      (Triplet response, spin-orbit, ESR, TDDFT, open-shell DFT)
  Lucas Visscher,           Vrije Universiteit Amsterdam, Netherlands (Frozen density embedding)
  David J. Wilson,          La Trobe University,          Australia   (DFT Hessian and DFT magnetizabilities)
  Hans Agren,               KTH Stockholm,                Sweden      (SIRIUS module, RESPONS, MC-SCRF solvation)
 --------------------------------------------------------------------------------

     Date and time (Linux)  : Sat Jul 27 17:42:41 2024
     Host name              : dn006                                   

 * Work memory size             :    64000000 =  488.28 megabytes.

 * Directories for basis set searches:
   1) /gpfs/projects/rjh/adrian/beta_paper_database/dalton/hf/NOCl/dipole
   2) /gpfs/projects/rjh/adrian/dalton/build/basis


Compilation information
-----------------------

 Who compiled             | ahurtado
 Host                     | sn-mem
 System                   | Linux-3.10.0-1160.81.1.el7.x86_64
 CMake generator          | Unix Makefiles
 Processor                | x86_64
 64-bit integers          | OFF
 MPI                      | ON
 Fortran compiler         | /gpfs/software/intel/oneAPI/2021_4/mpi/2021.4.0/bi
                          | n/mpiifort
 Fortran compiler version | unknown
 C compiler               | /gpfs/software/intel/oneAPI/2021_4/mpi/2021.4.0/bi
                          | n/mpiicc
 C compiler version       | unknown
 C++ compiler             | /gpfs/software/intel/oneAPI/2021_4/mpi/2021.4.0/bi
                          | n/mpiicpc
 C++ compiler version     | unknown
 Static linking           | OFF
 Last Git revision        | 66052b3af5ea7225e31178bf9a8b031913c72190
 Git branch               | (HEAD detached at Dalton2020.0)
 Configuration time       | 2024-05-30 10:57:17.145493

 * MPI parallel run using 38 processes.


   Content of the .dal input file
 ----------------------------------

**DALTON INPUT
.RUN RESPONSE
.DIRECT
**WAVE FUNCTIONS
.HF
**PROPERTIES
**RESPONSE
*QUADRA
.DIPLEN
.FREQUENCIES
5
0.0 0.0063445625 0.012689125 0.0190336875 0.02537825
**END OF DALTON INPUT


   Content of the .mol file
 ----------------------------

BASIS
t-aug-cc-pVTZ
blah
blah
Atomtype=3 Angstrom Charge=0 Nosymmmetry
Charge=17 Atoms=1
Cl_a -0.531200001141 -0.929799999232 0.000000000000
Charge=7 Atoms=1
N_a 0.000000000000 0.972399997674 0.000000000000
Charge=8 Atoms=1
O_a 1.128700001162 1.124999999397 0.000000000000


       *******************************************************************
       *********** Output from DALTON general input processing ***********
       *******************************************************************

 --------------------------------------------------------------------------------
   Overall default print level:    0
   Print level for DALTON.STAT:    1

    Parallel calculation using MPI
    AO-direct calculation (in sections where implemented)
    HERMIT 1- and 2-electron integral sections will be executed
    "Old" integral transformation used (limited to max 255 basis functions)
    Wave function sections will be executed (SIRIUS module)
    Dynamic molecular response properties section will be executed (RESPONSE module)
 --------------------------------------------------------------------------------


   ****************************************************************************
   *************** Output of molecule and basis set information ***************
   ****************************************************************************


    The two title cards from your ".mol" input:
    ------------------------------------------------------------------------
 1: blah                                                                    
 2: blah                                                                    
    ------------------------------------------------------------------------

  Coordinates are entered in Angstrom and converted to atomic units.
          - Conversion factor : 1 bohr = 0.52917721 A

  Atomic type no.    1
  --------------------
  Nuclear charge:  17.00000
  Number of symmetry independent centers:    1
  Number of basis sets to read;    2
  Basis set file used for this atomic type with Z =  17 :
     "/gpfs/projects/rjh/adrian/dalton/build/basis/aug-cc-pVTZ"

  Atomic type no.    2
  --------------------
  Nuclear charge:   7.00000
  Number of symmetry independent centers:    1
  Number of basis sets to read;    2
  Basis set file used for this atomic type with Z =   7 :
     "/gpfs/projects/rjh/adrian/dalton/build/basis/aug-cc-pVTZ"

  Atomic type no.    3
  --------------------
  Nuclear charge:   8.00000
  Number of symmetry independent centers:    1
  Number of basis sets to read;    2
  Basis set file used for this atomic type with Z =   8 :
     "/gpfs/projects/rjh/adrian/dalton/build/basis/aug-cc-pVTZ"


                         SYMGRP: Point group information
                         -------------------------------

@    Point group: C1 


                                 Isotopic Masses
                                 ---------------

                           Cl_a       34.968853
                           N_a        14.003074
                           O_a        15.994915

                       Total mass:    64.966842 amu
                       Natural abundance:  75.308 %

 Center-of-mass coordinates (a.u.):   -0.015184   -0.026271    0.000000
 Center-of-mass coordinates (Angs):   -0.008035   -0.013902    0.000000


  Atoms and basis sets
  --------------------

  Number of atom types :    3
  Total number of atoms:    3

  Basis set used is "t-aug-cc-pVTZ" from the basis set library.

  label    atoms   charge   prim   cont     basis
  ----------------------------------------------------------------------
  Cl          1   17.0000   107    82      [18s12p5d4f|8s7p5d4f]                              
  N_          1    7.0000    90    78      [13s8p5d4f|7s6p5d4f]                               
  O_          1    8.0000    90    78      [13s8p5d4f|7s6p5d4f]                               
  ----------------------------------------------------------------------
  total:      3   32.0000   287   238
  ----------------------------------------------------------------------
  Spherical harmonic basis used.

  Threshold for neglecting AO integrals:  1.00D-12


  Cartesian Coordinates (a.u.)
  ----------------------------

  Total number of coordinates:    9
  Cl_a    :     1  x  -1.0038225198    2  y  -1.7570673496    3  z   0.0000000000
  N_a     :     4  x   0.0000000000    5  y   1.8375696795    6  z   0.0000000000
  O_a     :     7  x   2.1329338795    8  y   2.1259418895    9  z   0.0000000000


   Interatomic separations (in Angstrom):
   --------------------------------------

            Cl_a        N_a         O_a   
            ------      ------      ------
 Cl_a  :    0.000000
 N_a   :    1.974978    0.000000
 O_a   :    2.641490    1.138969    0.000000


  Max    interatomic separation is    2.6415 Angstrom (    4.9917 Bohr)
  between atoms    3 and    1, "O_a   " and "Cl_a  ".

  Min YX interatomic separation is    1.1390 Angstrom (    2.1523 Bohr)


  Bond distances (Angstrom):
  --------------------------

                  atom 1     atom 2       distance
                  ------     ------       --------
  bond distance:  N_a        Cl_a         1.974978
  bond distance:  O_a        N_a          1.138969


  Bond angles (degrees):
  ----------------------

                  atom 1     atom 2     atom 3         angle
                  ------     ------     ------         -----
  bond angle:     Cl_a       N_a        O_a          113.302




 Principal moments of inertia (u*A**2) and principal axes
 --------------------------------------------------------

   IA       5.840433          0.544616    0.838686    0.000000
   IB      88.102929          0.838686   -0.544616    0.000000
   IC      93.943362          0.000000    0.000000    1.000000


 Rotational constants
 --------------------

@    The molecule is planar.

               A                   B                   C

          86531.0810           5736.2339           5379.6138 MHz
            2.886366            0.191340            0.179445 cm-1


@  Nuclear repulsion energy :   85.148419784453 Hartree


                     .---------------------------------------.
                     | Starting in Integral Section (HERMIT) |
                     `---------------------------------------'



 ***************************************************************************************
 ****************** Output from **INTEGRALS input processing (HERMIT) ******************
 ***************************************************************************************


 - Using defaults, no **INTEGRALS input found

 Default print level:        1

 Calculation of one-electron Hamiltonian integrals.

 Center of mass  (bohr):     -0.015183530523     -0.026271029737      0.000000000000
 Operator center (bohr):      0.000000000000      0.000000000000      0.000000000000
 Gauge origin    (bohr):      0.000000000000      0.000000000000      0.000000000000
 Dipole origin   (bohr):      0.000000000000      0.000000000000      0.000000000000


     ************************************************************************
     ************************** Output from HERINT **************************
     ************************************************************************



                      Nuclear contribution to dipole moments
                      --------------------------------------

                 au               Debye          C m (/(10**-30)

      x     -0.00151180        -0.00384261        -0.01281757
      y      0.00037793         0.00096060         0.00320422
      z      0.00000000         0.00000000         0.00000000


  Time used in GABGEN     is       0.36 seconds
  Total CPU  time used in HERMIT:   0.57 seconds
  Total wall time used in HERMIT:   0.57 seconds


                        .----------------------------------.
                        | End of Integral Section (HERMIT) |
                        `----------------------------------'



                   .--------------------------------------------.
                   | Starting in Wave Function Section (SIRIUS) |
                   `--------------------------------------------'


 *** Output from Huckel module :

     Using EWMO model:          T
     Using EHT  model:          F
     Number of Huckel orbitals each symmetry:   24

 EWMO - Energy Weighted Maximum Overlap - is a Huckel type method,
        which normally is better than Extended Huckel Theory.
 Reference: Linderberg and Ohrn, Propagators in Quantum Chemistry (Wiley, 1973)

 Huckel EWMO eigenvalues for symmetry :  1
         -104.883930     -20.685569     -15.673202     -10.608489      -8.072407
           -8.072214      -8.072213      -1.708026      -1.175229      -0.898477
           -0.756044      -0.739435      -0.598849      -0.506247      -0.484719
           -0.442076      -0.370251      -0.309233      -0.187242      -0.055540
           -0.055527      -0.054317      -0.054072      -0.050572

 **********************************************************************
 *SIRIUS* a direct, restricted step, second order MCSCF program       *
 **********************************************************************

 
     Date and time (Linux)  : Sat Jul 27 17:42:42 2024
     Host name              : dn006                                   

 Title lines from ".mol" input file:
     blah                                                                    
     blah                                                                    

 Print level on unit LUPRI =   2 is   0
 Print level on unit LUW4  =   2 is   5

@    Restricted, closed shell Hartree-Fock calculation.

@    Time-dependent Hartree-Fock calculation (random phase approximation).
 Fock matrices are calculated directly and in parallel without use of integrals on disk.

 Initial molecular orbitals are obtained according to
 ".MOSTART EWMO  " input option

     Wave function specification
     ============================
@    Wave function type        --- HF ---
@    Number of closed shell electrons          32
@    Number of electrons in active shells       0
@    Total charge of the molecule               0

@    Spin multiplicity and 2 M_S                1         0
@    Total number of symmetries                 1 (point group: C1 )
@    Reference state symmetry                   1 (irrep name : A  )

     Orbital specifications
     ======================
@    Abelian symmetry species          All |    1
@                                          |  A  
                                       --- |  ---
@    Occupied SCF orbitals              16 |   16
@    Secondary orbitals                222 |  222
@    Total number of orbitals          238 |  238
@    Number of basis functions         238 |  238

     Optimization information
     ========================
@    Number of configurations                 1
@    Number of orbital rotations           3552
     ------------------------------------------
@    Total number of variables             3553

     Maximum number of Fock   iterations      0
     Maximum number of DIIS   iterations     60
     Maximum number of QC-SCF iterations     60
     Threshold for SCF convergence     1.00D-05


 ***********************************************
 ***** DIIS acceleration of SCF iterations *****
 ***********************************************

 C1-DIIS algorithm; max error vectors =    8

 Iter      Total energy        Error norm    Delta(E)  DIIS dim.
 -----------------------------------------------------------------------------
   1  Screening settings (-IFTHRS, JTDIIS, DIFDEN, times)   -8    1    T  1.25D+00  1.25D+00
@  1    -588.364818853        2.72894D+00   -5.88D+02    1
      Virial theorem: -V/T =      2.000624
@    MULPOP   Cl_a   -0.19; N_a     0.53; O_a    -0.35; 
   1  Level shift: doubly occupied orbital energies shifted by -2.00D-01
 -----------------------------------------------------------------------------
   2  Screening settings (-IFTHRS, JTDIIS, DIFDEN, times)   -8    2    T  1.16D+00  1.17D+00
@  2    -588.703264466        1.10784D+00   -3.38D-01    2
      Virial theorem: -V/T =      2.000318
@    MULPOP   Cl_a   -0.19; N_a     0.18; O_a     0.01; 
   2  Level shift: doubly occupied orbital energies shifted by -1.00D-01
 -----------------------------------------------------------------------------
   3  Screening settings (-IFTHRS, JTDIIS, DIFDEN, times)   -8    3    T  1.15D+00  1.15D+00
@  3    -588.760370689        3.75708D-01   -5.71D-02    3
      Virial theorem: -V/T =      2.000275
@    MULPOP   Cl_a   -0.31; N_a     0.53; O_a    -0.22; 
   3  Level shift: doubly occupied orbital energies shifted by -5.00D-02
 -----------------------------------------------------------------------------
   4  Screening settings (-IFTHRS, JTDIIS, DIFDEN, times)  -12    4    F  1.14D+00  1.14D+00
@  4    -588.768543219        1.05262D-01   -8.17D-03    4
      Virial theorem: -V/T =      2.000833
@    MULPOP   Cl_a   -0.34; N_a     0.48; O_a    -0.14; 
   4  Level shift: doubly occupied orbital energies shifted by -2.50D-02
 -----------------------------------------------------------------------------
   5  Screening settings (-IFTHRS, JTDIIS, DIFDEN, times)  -12    5    T  1.17D+00  1.17D+00
@  5    -588.769707047        3.77426D-02   -1.16D-03    5
      Virial theorem: -V/T =      2.000641
@    MULPOP   Cl_a   -0.34; N_a     0.49; O_a    -0.15; 
   5  Level shift: doubly occupied orbital energies shifted by -1.25D-02
 -----------------------------------------------------------------------------
   6  Screening settings (-IFTHRS, JTDIIS, DIFDEN, times)  -12    6    T  1.14D+00  1.15D+00
@  6    -588.769916592        1.65102D-02   -2.10D-04    6
      Virial theorem: -V/T =      2.000637
@    MULPOP   Cl_a   -0.34; N_a     0.49; O_a    -0.15; 
 -----------------------------------------------------------------------------
   7  Screening settings (-IFTHRS, JTDIIS, DIFDEN, times)  -12    7    T  1.20D+00  1.21D+00
@  7    -588.769978058        6.01265D-03   -6.15D-05    7
      Virial theorem: -V/T =      2.000657
@    MULPOP   Cl_a   -0.34; N_a     0.49; O_a    -0.15; 
 -----------------------------------------------------------------------------
   8  Screening settings (-IFTHRS, JTDIIS, DIFDEN, times)  -12    8    T  1.19D+00  1.19D+00
@  8    -588.769988116        2.57094D-03   -1.01D-05    8
      Virial theorem: -V/T =      2.000646
@    MULPOP   Cl_a   -0.34; N_a     0.49; O_a    -0.15; 
 -----------------------------------------------------------------------------
   9  Screening settings (-IFTHRS, JTDIIS, DIFDEN, times)  -12    9    T  1.20D+00  1.21D+00
@  9    -588.769989962        9.25791D-04   -1.85D-06    8
      Virial theorem: -V/T =      2.000646
@    MULPOP   Cl_a   -0.34; N_a     0.49; O_a    -0.15; 
 -----------------------------------------------------------------------------
  10  Screening settings (-IFTHRS, JTDIIS, DIFDEN, times)  -12   10    T  1.16D+00  1.17D+00
@ 10    -588.769990213        3.22968D-04   -2.51D-07    8
      Virial theorem: -V/T =      2.000646
@    MULPOP   Cl_a   -0.34; N_a     0.49; O_a    -0.15; 
 -----------------------------------------------------------------------------
  11  Screening settings (-IFTHRS, JTDIIS, DIFDEN, times)  -12   11    T  1.17D+00  1.18D+00
@ 11    -588.769990245        1.18798D-04   -3.23D-08    8
      Virial theorem: -V/T =      2.000646
@    MULPOP   Cl_a   -0.34; N_a     0.49; O_a    -0.15; 
 -----------------------------------------------------------------------------
  12  Screening settings (-IFTHRS, JTDIIS, DIFDEN, times)  -12   12    T  1.16D+00  1.17D+00
@ 12    -588.769990249        3.96061D-05   -3.82D-09    8
      Virial theorem: -V/T =      2.000646
@    MULPOP   Cl_a   -0.34; N_a     0.49; O_a    -0.15; 
 -----------------------------------------------------------------------------
  13  Screening settings (-IFTHRS, JTDIIS, DIFDEN, times)  -12   13    T  1.18D+00  1.19D+00
@ 13    -588.769990249        2.23694D-05   -1.57D-10    8
      Virial theorem: -V/T =      2.000646
@    MULPOP   Cl_a   -0.34; N_a     0.49; O_a    -0.15; 
 -----------------------------------------------------------------------------
  14  Screening settings (-IFTHRS, JTDIIS, DIFDEN, times)  -12   14    T  1.15D+00  1.15D+00
@ 14    -588.769990249        5.50548D-06   -5.49D-11    8

@ *** DIIS converged in  14 iterations !
@     Converged SCF energy, gradient:   -588.769990248808    5.51D-06
    - total time used in SIRFCK :              0.00 seconds


 *** SCF orbital energy analysis ***

 Only the 20 lowest virtual orbital energies printed in each symmetry.

 Number of electrons :   32
 Orbital occupations :   16

 Sym       Hartree-Fock orbital energies

1 A    -104.83646683   -20.75822509   -15.85510096   -10.55948834    -8.02581542
         -8.02408152    -8.02396566    -1.68328646    -1.10546320    -0.96910707
         -0.77227804    -0.76385958    -0.72616992    -0.45882350    -0.45845292
         -0.43120530     0.00392809     0.00713640     0.00732073     0.00756460
          0.01310423     0.01385665     0.01387336     0.01551060     0.01641127
          0.01790794     0.02357006     0.02909997     0.03050923     0.03270396
          0.03364374     0.04161369     0.04431376     0.04602232     0.04979803
          0.05189869

    E(LUMO) :     0.00392809 au (symmetry 1)
  - E(HOMO) :    -0.43120530 au (symmetry 1)
  ------------------------------------------
    gap     :     0.43513339 au

 --- Writing SIRIFC interface file

 CPU and wall time for SCF :      17.160      17.271


                       .-----------------------------------.
                       | --- Final results from SIRIUS --- |
                       `-----------------------------------'


@    Spin multiplicity:           1
@    Spatial symmetry:            1 ( irrep  A   in C1  )
@    Total charge of molecule:    0

@    Final HF energy:            -588.769990248808                 
@    Nuclear repulsion:            85.148419784453
@    Electronic energy:          -673.918410033261

@    Final gradient norm:           0.000005505480

 
     Date and time (Linux)  : Sat Jul 27 17:42:59 2024
     Host name              : dn006                                   

File label for MO orbitals:  27Jul24   FOCKDIIS

 (Only coefficients > 0.0100 are printed.)

 Molecular orbitals for symmetry species 1  (A  )
 ------------------------------------------------

    Orbital         7        8        9       10       11       12       13
   3 Cl_a:1s     0.0007  -0.0283   0.7918   0.4745  -0.1502   0.2725  -0.0000
   5 Cl_a:1s    -0.0016  -0.0206   0.0104   0.0108  -0.0330   0.0473   0.0000
   6 Cl_a:1s    -0.0006   0.0746   0.0057  -0.0303   0.0145  -0.0179   0.0000
   7 Cl_a:1s    -0.0034  -0.0596  -0.0934  -0.0335   0.0233   0.0849   0.0000
   8 Cl_a:1s    -0.0019  -0.0124  -0.0359  -0.0004   0.0085   0.0436  -0.0000
   9 Cl_a:2px   -0.9661  -0.0013  -0.0007   0.0001  -0.0008   0.0024  -0.0000
  10 Cl_a:2py    0.2559  -0.0014  -0.0007   0.0006  -0.0006   0.0035   0.0000
  12 Cl_a:2px    0.0043  -0.0150   0.0221  -0.0138   0.0997  -0.0260   0.0000
  13 Cl_a:2py   -0.0011  -0.0271   0.0909  -0.0848   0.1094  -0.2451   0.0000
  14 Cl_a:2pz    0.0000   0.0000  -0.0000   0.0000  -0.0000  -0.0000   0.0969
  18 Cl_a:2px   -0.0080   0.0174   0.0042  -0.0036  -0.0152  -0.0205   0.0000
  19 Cl_a:2py   -0.0014  -0.0078  -0.0255   0.0185  -0.0125   0.0629   0.0000
  20 Cl_a:2pz    0.0000   0.0000   0.0000   0.0000  -0.0000  -0.0000  -0.0320
  21 Cl_a:2px   -0.0101  -0.0149  -0.0217  -0.0053   0.0085   0.0597  -0.0000
  22 Cl_a:2py   -0.0032  -0.0371  -0.0651  -0.0108   0.0084   0.0444   0.0000
  23 Cl_a:2pz    0.0000  -0.0000  -0.0000  -0.0000   0.0000   0.0000   0.0542
  24 Cl_a:2px   -0.0017  -0.0092  -0.0022  -0.0053  -0.0022   0.0155  -0.0000
  25 Cl_a:2py   -0.0015   0.0003  -0.0215   0.0000   0.0043   0.0200   0.0000
  34 Cl_a:3d2+  -0.0003   0.0014  -0.0063   0.0049  -0.0027   0.0120  -0.0000
  35 Cl_a:3d2-   0.0006  -0.0058   0.0061  -0.0031   0.0113  -0.0038  -0.0000
  39 Cl_a:3d2+   0.0007   0.0049  -0.0107   0.0069  -0.0080   0.0167  -0.0000
  40 Cl_a:3d2-  -0.0035   0.0161   0.0031  -0.0011  -0.0029  -0.0214  -0.0000
  41 Cl_a:3d1-   0.0000  -0.0000  -0.0000  -0.0000   0.0000   0.0000  -0.0202
  44 Cl_a:3d2+  -0.0010   0.0057   0.0093  -0.0044   0.0002  -0.0215  -0.0000
  45 Cl_a:3d2-  -0.0035  -0.0197  -0.0164   0.0023  -0.0028   0.0281  -0.0000
  46 Cl_a:3d1-   0.0000  -0.0000  -0.0000  -0.0000   0.0000   0.0000   0.0253
  47 Cl_a:3d0    0.0013   0.0172   0.0153   0.0014  -0.0005  -0.0157  -0.0000
  49 Cl_a:3d2+  -0.0007   0.0148   0.0131   0.0024   0.0052   0.0040  -0.0000
  69 Cl_a:4f3-  -0.0011   0.0033   0.0031  -0.0015   0.0016  -0.0103   0.0000
  83 N_a :1s     0.0002   0.0111   0.0007  -0.0031  -0.0020  -0.0051  -0.0000
  84 N_a :1s     0.0005  -0.5306   0.3562  -0.6197  -0.1235  -0.3334   0.0000
  86 N_a :1s     0.0027   0.0921   0.0374  -0.0381  -0.0965  -0.1476  -0.0000
  87 N_a :1s     0.0019  -0.0100   0.0809   0.0554  -0.0533  -0.1706  -0.0000
  88 N_a :1s    -0.0049   0.0029   0.0800   0.0433  -0.0290  -0.1036  -0.0000
  89 N_a :1s    -0.0007  -0.0136   0.0057   0.0035  -0.0018  -0.0166   0.0000
  90 N_a :2px   -0.0000  -0.2999  -0.1498   0.0349   0.2855   0.6376   0.0000
  91 N_a :2py   -0.0000  -0.0310  -0.1379  -0.0832  -0.4493   0.1541  -0.0000
  92 N_a :2pz    0.0000   0.0000   0.0000   0.0000  -0.0000   0.0000   0.5593
  93 N_a :2px    0.0002   0.0275   0.0136  -0.0058  -0.0192  -0.0403  -0.0000
  96 N_a :2px   -0.0008   0.1169   0.0482  -0.0342  -0.0625  -0.0973   0.0000
  97 N_a :2py   -0.0060   0.0283   0.0349   0.0063   0.1200  -0.0571   0.0000
  98 N_a :2pz   -0.0000   0.0000   0.0000   0.0000   0.0000  -0.0000  -0.0869
  99 N_a :2px    0.0097   0.1787   0.0324   0.0071   0.0386  -0.1253   0.0000
 100 N_a :2py    0.0027   0.1408   0.0465  -0.0312   0.0516  -0.0547  -0.0000
 101 N_a :2pz   -0.0000   0.0000   0.0000   0.0000  -0.0000  -0.0000  -0.0524
 102 N_a :2px   -0.0013   0.0129  -0.0206   0.0141   0.0244   0.0110  -0.0000
 103 N_a :2py   -0.0020  -0.0167  -0.0198   0.0005  -0.0039   0.0339  -0.0000
 104 N_a :2pz    0.0000  -0.0000  -0.0000   0.0000   0.0000   0.0000   0.0268
 108 N_a :3d2-  -0.0000  -0.0033  -0.0013  -0.0016  -0.0160   0.0057   0.0000
 111 N_a :3d1+   0.0000  -0.0000  -0.0000  -0.0000   0.0000  -0.0000   0.0200
 112 N_a :3d2+  -0.0000  -0.0161  -0.0050  -0.0035   0.0065   0.0150  -0.0000
 113 N_a :3d2-  -0.0000  -0.0004   0.0056  -0.0018  -0.0260   0.0011   0.0000
 116 N_a :3d1+  -0.0000   0.0000   0.0000   0.0000  -0.0000   0.0000   0.0360
 117 N_a :3d2+   0.0002  -0.0158  -0.0152  -0.0047   0.0038   0.0206   0.0000
 118 N_a :3d2-  -0.0030   0.0283   0.0230  -0.0007   0.0590  -0.0521  -0.0000
 119 N_a :3d1-   0.0000   0.0000   0.0000   0.0000  -0.0000  -0.0000  -0.0210
 120 N_a :3d0    0.0005  -0.0167  -0.0083   0.0080  -0.0048   0.0048   0.0000
 121 N_a :3d1+   0.0000   0.0000   0.0000   0.0000  -0.0000  -0.0000  -0.0399
 122 N_a :3d2+  -0.0021   0.0235   0.0050  -0.0269  -0.0257  -0.0014   0.0000
 123 N_a :3d2-  -0.0049   0.0084   0.0076  -0.0043   0.0392   0.0163  -0.0000
 124 N_a :3d1-   0.0000  -0.0000  -0.0000  -0.0000   0.0000   0.0000   0.0255
 125 N_a :3d0    0.0013  -0.0122   0.0011  -0.0029  -0.0021   0.0052  -0.0000
 127 N_a :3d2+   0.0018   0.0816   0.0272  -0.0086  -0.0003  -0.0472  -0.0000
 128 N_a :3d2-  -0.0017  -0.0026  -0.0013   0.0014  -0.0007   0.0108  -0.0000
 147 N_a :4f3-   0.0006  -0.0055   0.0036   0.0016   0.0305   0.0002  -0.0000
 152 N_a :4f2+   0.0000   0.0000   0.0000   0.0000  -0.0000  -0.0000  -0.0176
 162 O_a :1s    -0.0003  -0.7297  -0.3060   0.5297  -0.0485  -0.1412  -0.0000
 164 O_a :1s     0.0021   0.0475  -0.0647   0.1627  -0.0038  -0.0630  -0.0000
 165 O_a :1s     0.0023  -0.0400  -0.0349   0.0005   0.0162   0.1197  -0.0000
 166 O_a :1s     0.0084   0.0576  -0.0053  -0.0160   0.0165   0.0340   0.0000
 167 O_a :1s     0.0018   0.0325   0.0171  -0.0031  -0.0008  -0.0066  -0.0000
 168 O_a :2px    0.0000   0.2489  -0.0878   0.4518  -0.0608  -0.5889   0.0000
 169 O_a :2py    0.0000   0.0349  -0.0716   0.0083  -0.7378   0.1070  -0.0000
 170 O_a :2pz   -0.0000   0.0000   0.0000   0.0000  -0.0000   0.0000   0.6886
 171 O_a :2px   -0.0000   0.0016   0.0076  -0.0177  -0.0001   0.0092   0.0000
 174 O_a :2px    0.0001  -0.0835   0.0266  -0.0782   0.0009   0.0441  -0.0000
 175 O_a :2py    0.0025  -0.0232  -0.0130  -0.0086  -0.0538   0.0442   0.0000
 176 O_a :2pz    0.0000  -0.0000  -0.0000  -0.0000   0.0000  -0.0000   0.0433
 177 O_a :2px   -0.0025  -0.1902  -0.0170   0.0001  -0.0550   0.0289   0.0000
 178 O_a :2py   -0.0034  -0.0967  -0.0306   0.0066  -0.0653   0.0358  -0.0000
 179 O_a :2pz   -0.0000  -0.0000  -0.0000   0.0000  -0.0000   0.0000   0.0255
 180 O_a :2px    0.0021  -0.0278   0.0164  -0.0104  -0.0287  -0.0297   0.0000
 181 O_a :2py    0.0026  -0.0039   0.0135  -0.0115   0.0081  -0.0276   0.0000
 182 O_a :2pz   -0.0000   0.0000   0.0000   0.0000  -0.0000  -0.0000  -0.0388
 186 O_a :3d2-  -0.0000  -0.0030   0.0017  -0.0011   0.0112   0.0009  -0.0000
 189 O_a :3d1+   0.0000  -0.0000  -0.0000  -0.0000  -0.0000   0.0000  -0.0128
 190 O_a :3d2+   0.0000  -0.0099   0.0004  -0.0074   0.0001   0.0104  -0.0000
 191 O_a :3d2-  -0.0000  -0.0057   0.0065  -0.0012   0.0314  -0.0025   0.0000
 193 O_a :3d0   -0.0001   0.0117   0.0002   0.0062  -0.0040  -0.0108   0.0000
 194 O_a :3d1+  -0.0000   0.0000   0.0000   0.0000   0.0000  -0.0000  -0.0366
 195 O_a :3d2+  -0.0001  -0.0208  -0.0010  -0.0140  -0.0009   0.0210   0.0000
 196 O_a :3d2-  -0.0017   0.0132   0.0103   0.0004   0.0333  -0.0195   0.0000
 198 O_a :3d0    0.0002  -0.0142  -0.0005   0.0013   0.0013   0.0033  -0.0000
 199 O_a :3d1+  -0.0000   0.0000   0.0000   0.0000  -0.0000  -0.0000  -0.0347
 200 O_a :3d2+  -0.0005   0.0202   0.0005   0.0008  -0.0019   0.0013   0.0000
 201 O_a :3d2-   0.0014   0.0392  -0.0022   0.0029  -0.0117  -0.0089   0.0000
 203 O_a :3d0   -0.0011  -0.0324   0.0003  -0.0049  -0.0108   0.0072   0.0000
 204 O_a :3d1+   0.0000   0.0000   0.0000   0.0000   0.0000  -0.0000   0.0124
 205 O_a :3d2+  -0.0021   0.0268  -0.0013   0.0076   0.0224   0.0024  -0.0000

    Orbital        14       15       16       17       18       19       20
   3 Cl_a:1s    -0.0000   0.0146   0.0259   0.0095  -0.0015   0.0000  -0.0184
   5 Cl_a:1s    -0.0000  -0.0071   0.0170   0.0085   0.0094  -0.0000  -0.0045
   6 Cl_a:1s     0.0000  -0.0145  -0.0842  -0.3469   0.2954   0.0000  -0.1184
   7 Cl_a:1s    -0.0000  -0.0106  -0.0850  -1.2963  -0.8591  -0.0000  -2.4801
   8 Cl_a:1s    -0.0000  -0.0096   0.0187   2.0711  -0.2537  -0.0000  -3.0876
  12 Cl_a:2px    0.0000  -0.9467  -0.0408   0.0035  -0.0102  -0.0000   0.0004
  13 Cl_a:2py   -0.0000   0.1402  -0.7340  -0.0122  -0.0067  -0.0000   0.0033
  14 Cl_a:2pz    0.9479   0.0000  -0.0000  -0.0000   0.0000   0.0056  -0.0000
  18 Cl_a:2px   -0.0000  -0.0475   0.0287  -0.0391   0.0007  -0.0000   0.0038
  19 Cl_a:2py   -0.0000  -0.0034  -0.0222  -0.0499   0.0189  -0.0000  -0.0141
  20 Cl_a:2pz    0.0427  -0.0000   0.0000  -0.0000  -0.0000   0.0199  -0.0000
  21 Cl_a:2px    0.0000  -0.1838  -0.0192  -0.3944   0.1079   0.0000  -0.4764
  22 Cl_a:2py   -0.0000   0.0073  -0.0478  -0.2210  -0.0977  -0.0000  -0.2789
  23 Cl_a:2pz    0.1577   0.0000  -0.0000   0.0000   0.0000   0.5028   0.0000
  24 Cl_a:2px    0.0000  -0.0391  -0.0029  -0.5008   0.7275   0.0000  -0.4529
  25 Cl_a:2py   -0.0000  -0.0092  -0.0007  -0.1669  -0.2298  -0.0000  -0.3946
  26 Cl_a:2pz    0.0033   0.0000  -0.0000   0.0000   0.0000  -0.1499   0.0000
  27 Cl_a:2px   -0.0000   0.0076   0.0034   1.6726  -1.5669  -0.0000   2.8147
  28 Cl_a:2py   -0.0000  -0.0003   0.0021   1.2544   0.9522   0.0000   0.4332
  29 Cl_a:2pz    0.0016   0.0000   0.0000   0.0000   0.0000   1.4112   0.0000
  35 Cl_a:3d2-   0.0000  -0.0074  -0.0145  -0.0002  -0.0002   0.0000  -0.0011
  37 Cl_a:3d0   -0.0000   0.0027   0.0101  -0.0002  -0.0007  -0.0000   0.0015
  39 Cl_a:3d2+   0.0000   0.0014   0.0166  -0.0007  -0.0007   0.0000  -0.0001
  40 Cl_a:3d2-   0.0000  -0.0138   0.0131  -0.0177   0.0023   0.0000   0.0149
  41 Cl_a:3d1-   0.0148   0.0000   0.0000   0.0000   0.0000   0.0022   0.0000
  44 Cl_a:3d2+   0.0000  -0.0027   0.0201   0.0071  -0.0097   0.0000   0.0093
  45 Cl_a:3d2-   0.0000  -0.0559  -0.0090  -0.1011  -0.0223   0.0000  -0.1371
  46 Cl_a:3d1-   0.0551   0.0000   0.0000   0.0000   0.0000   0.1627   0.0000
  47 Cl_a:3d0    0.0000   0.0073  -0.0025   0.0321   0.0456  -0.0000   0.0657
  48 Cl_a:3d1+   0.0263   0.0000  -0.0000   0.0000   0.0000   0.0378   0.0000
  49 Cl_a:3d2+   0.0000  -0.0263   0.0075  -0.0298   0.0547   0.0000  -0.0292
  50 Cl_a:3d2-   0.0000  -0.0106   0.0008  -0.0452   0.1027   0.0000  -0.0402
  51 Cl_a:3d1-   0.0043   0.0000  -0.0000   0.0000   0.0000   0.0176   0.0000
  52 Cl_a:3d0   -0.0000   0.0026   0.0001   0.0451  -0.0074   0.0000  -0.0696
  53 Cl_a:3d1+   0.0035   0.0000   0.0000   0.0000   0.0000   0.0333  -0.0000
  54 Cl_a:3d2+   0.0000  -0.0015  -0.0032  -0.0736   0.0012   0.0000   0.0435
  76 Cl_a:4f3-   0.0000  -0.0071   0.0004  -0.0182   0.0061   0.0000  -0.0130
  78 Cl_a:4f1-   0.0000  -0.0002  -0.0027   0.0029   0.0162   0.0000   0.0038
  79 Cl_a:4f0   -0.0082  -0.0000  -0.0000  -0.0000  -0.0000  -0.0208  -0.0000
  81 Cl_a:4f2+  -0.0053  -0.0000  -0.0000  -0.0000  -0.0000  -0.0195  -0.0000
  82 Cl_a:4f3+  -0.0000   0.0070   0.0028   0.0112   0.0071  -0.0000   0.0164
  84 N_a :1s     0.0000  -0.0049   0.2426   0.0167   0.0106   0.0000  -0.0045
  86 N_a :1s    -0.0000  -0.0090   0.0920  -0.0534   0.1032  -0.0000   0.0726
  87 N_a :1s    -0.0000   0.0586   0.2191  -0.1012   0.7845  -0.0000   1.2316
  88 N_a :1s     0.0000  -0.0762   0.1160  -1.8119   4.8677   0.0000   5.9904
  89 N_a :1s    -0.0000  -0.0045   0.0034  -6.7801   4.2564  -0.0000   6.3116
  90 N_a :2px   -0.0000   0.0301  -0.2309  -0.0144  -0.0030  -0.0000   0.0048
  91 N_a :2py    0.0000   0.0123   0.3446  -0.0062  -0.0051   0.0000  -0.0121
  93 N_a :2px    0.0000  -0.0031   0.0102  -0.0029   0.0052   0.0000   0.0044
  96 N_a :2px   -0.0000  -0.0145   0.0143  -0.0820   0.0422  -0.0000   0.0512
  97 N_a :2py   -0.0000  -0.0005   0.0906  -0.0425   0.0505  -0.0000   0.0141
  98 N_a :2pz    0.0212  -0.0000  -0.0000  -0.0000  -0.0000   0.0368  -0.0000
  99 N_a :2px   -0.0000   0.1502  -0.0004  -0.1662   0.1910  -0.0000   0.4765
 100 N_a :2py    0.0000  -0.0157   0.0144  -0.2417   0.6025   0.0000  -0.2909
 101 N_a :2pz   -0.1012  -0.0000  -0.0000  -0.0000  -0.0000  -0.1077  -0.0000
 102 N_a :2px   -0.0000   0.0090   0.0141   0.4418  -0.9936  -0.0000  -0.9243
 103 N_a :2py    0.0000  -0.0168   0.0517   1.0588   0.9134   0.0000  -1.6394
 104 N_a :2pz    0.0364   0.0000   0.0000   0.0000  -0.0000   1.0738  -0.0000
 105 N_a :2px    0.0000  -0.0092  -0.0035  -1.7667   4.3607   0.0000  -4.1033
 106 N_a :2py    0.0000  -0.0086  -0.0051  -3.7162  -1.0563   0.0000  -5.6333
 107 N_a :2pz   -0.0040  -0.0000   0.0000  -0.0000  -0.0000  -4.2263  -0.0000
 113 N_a :3d2-   0.0000   0.0014  -0.0282  -0.0005   0.0035   0.0000   0.0016
 114 N_a :3d1-  -0.0151   0.0000   0.0000   0.0000   0.0000  -0.0006   0.0000
 115 N_a :3d0    0.0000   0.0005   0.0154   0.0017  -0.0008   0.0000  -0.0014
 116 N_a :3d1+  -0.0125  -0.0000   0.0000  -0.0000  -0.0000   0.0032  -0.0000
 117 N_a :3d2+  -0.0000   0.0154   0.0210  -0.0034   0.0015  -0.0000   0.0020
 118 N_a :3d2-   0.0000   0.0064   0.0303  -0.0145   0.0091   0.0000   0.0270
 119 N_a :3d1-  -0.0061  -0.0000  -0.0000  -0.0000  -0.0000   0.0104  -0.0000
 120 N_a :3d0    0.0000   0.0026   0.0059   0.0050  -0.0022   0.0000  -0.0133
 121 N_a :3d1+   0.0064  -0.0000  -0.0000  -0.0000  -0.0000   0.0184  -0.0000
 122 N_a :3d2+  -0.0000   0.0021   0.0334  -0.0407   0.0037  -0.0000   0.0197
 123 N_a :3d2-   0.0000  -0.0644   0.0057  -0.1708   0.1095   0.0000  -0.1531
 124 N_a :3d1-   0.0406   0.0000   0.0000   0.0000   0.0000   0.2061   0.0000
 125 N_a :3d0    0.0000   0.0125   0.0003   0.0349  -0.0480   0.0000  -0.0542
 126 N_a :3d1+   0.0010   0.0000   0.0000   0.0000   0.0000   0.0918  -0.0000
 127 N_a :3d2+   0.0000   0.0018  -0.0189  -0.1535   0.1324   0.0000   0.0328
 128 N_a :3d2-   0.0000  -0.0258   0.0142   0.0617   0.4022   0.0000  -0.2514
 129 N_a :3d1-   0.0023   0.0000  -0.0000   0.0000   0.0000   0.0367   0.0000
 130 N_a :3d0   -0.0000   0.0106  -0.0044  -0.0982  -0.1011  -0.0000   0.1463
 131 N_a :3d1+   0.0078   0.0000  -0.0000   0.0000   0.0000   0.0504   0.0000
 132 N_a :3d2+   0.0000  -0.0034   0.0005   0.0980  -0.0915   0.0000  -0.4950
 153 N_a :4f3+   0.0000   0.0018   0.0054  -0.0119  -0.0030   0.0000   0.0117
 154 N_a :4f3-  -0.0000   0.0032   0.0037  -0.0298  -0.0104  -0.0000  -0.0027
 155 N_a :4f2-  -0.0030  -0.0000  -0.0000  -0.0000  -0.0000  -0.0136   0.0000
 156 N_a :4f1-  -0.0000  -0.0021   0.0009   0.0189  -0.0048  -0.0000  -0.0103
 157 N_a :4f0    0.0068   0.0000   0.0000   0.0000   0.0000   0.0350   0.0000
 158 N_a :4f1+   0.0000  -0.0042   0.0001   0.0090  -0.0194   0.0000  -0.0218
 159 N_a :4f2+   0.0049   0.0000  -0.0000   0.0000   0.0000   0.0178   0.0000
 160 N_a :4f3+   0.0000  -0.0061   0.0007  -0.0264   0.0230   0.0000  -0.0269
 162 O_a :1s    -0.0000   0.0312  -0.0260   0.0140  -0.0018   0.0000  -0.0048
 164 O_a :1s     0.0000   0.0037  -0.0335   0.0953  -0.0357   0.0000  -0.0680
 165 O_a :1s     0.0000  -0.0204  -0.0795   0.5203  -0.5447   0.0000  -0.5836
 166 O_a :1s    -0.0000   0.1012  -0.0584   2.0425  -3.3273  -0.0000  -2.1521
 167 O_a :1s     0.0000   0.0071  -0.0201   4.6414  -5.5771   0.0000  -4.4226
 168 O_a :2px   -0.0000  -0.0246   0.1307   0.0109  -0.0011  -0.0000  -0.0053
 169 O_a :2py   -0.0000  -0.1732  -0.4946   0.0114   0.0043   0.0000   0.0078
 170 O_a :2pz   -0.1693  -0.0000   0.0000  -0.0000  -0.0000   0.0056  -0.0000
 174 O_a :2px    0.0000   0.0018   0.0097  -0.0389   0.0451  -0.0000   0.0350
 175 O_a :2py    0.0000  -0.0117  -0.0728   0.0043  -0.0085  -0.0000  -0.0063
 176 O_a :2pz   -0.0187   0.0000  -0.0000   0.0000   0.0000  -0.0214   0.0000
 177 O_a :2px   -0.0000  -0.0155   0.0343   0.0022   0.1958  -0.0000   0.1548
 178 O_a :2py   -0.0000  -0.0295  -0.0674  -0.0091  -0.2994  -0.0000   0.0870
 179 O_a :2pz   -0.0323   0.0000   0.0000   0.0000   0.0000  -0.1989   0.0000
 180 O_a :2px   -0.0000   0.0253  -0.0050  -0.9431   1.5655  -0.0000   1.8284
 181 O_a :2py   -0.0000   0.0203  -0.0827  -1.4782  -0.9456  -0.0000   0.4718
 182 O_a :2pz   -0.0607  -0.0000  -0.0000  -0.0000  -0.0000  -1.0862  -0.0000
 183 O_a :2px   -0.0000   0.0037   0.0027  -0.3780  -1.4843  -0.0000   1.9040
 184 O_a :2py   -0.0000   0.0108   0.0054   2.5908  -0.0660  -0.0000   4.4980
 185 O_a :2pz    0.0020  -0.0000  -0.0000  -0.0000  -0.0000   1.9421  -0.0000
 196 O_a :3d2-  -0.0000  -0.0049   0.0121  -0.0034   0.0084  -0.0000   0.0052
 199 O_a :3d1+   0.0056  -0.0000  -0.0000  -0.0000  -0.0000   0.0115  -0.0000
 200 O_a :3d2+  -0.0000  -0.0016  -0.0009   0.0060  -0.0120  -0.0000  -0.0056
 201 O_a :3d2-   0.0000   0.0111   0.0099   0.0490   0.0639   0.0000  -0.0118
 202 O_a :3d1-   0.0193  -0.0000  -0.0000  -0.0000  -0.0000  -0.0077  -0.0000
 203 O_a :3d0   -0.0000  -0.0143  -0.0025  -0.0022   0.0318  -0.0000   0.0187
 204 O_a :3d1+   0.0147  -0.0000  -0.0000  -0.0000  -0.0000   0.0545  -0.0000
 205 O_a :3d2+  -0.0000  -0.0196  -0.0013  -0.0153  -0.0478  -0.0000  -0.0381
 206 O_a :3d2-   0.0000   0.0001   0.0138   0.2072   0.0664  -0.0000   0.0348
 207 O_a :3d1-   0.0104  -0.0000   0.0000  -0.0000  -0.0000   0.0227  -0.0000
 208 O_a :3d0   -0.0000  -0.0011  -0.0028  -0.0758   0.1369  -0.0000   0.0964
 209 O_a :3d1+   0.0132   0.0000   0.0000   0.0000   0.0000   0.1845  -0.0000
 210 O_a :3d2+   0.0000  -0.0158  -0.0045  -0.0277  -0.1286   0.0000  -0.1231
 232 O_a :4f3-   0.0000   0.0011  -0.0038  -0.0173  -0.0057   0.0000   0.0079
 236 O_a :4f1+  -0.0000   0.0020   0.0017   0.0069  -0.0200   0.0000  -0.0141
 237 O_a :4f2+  -0.0002   0.0000   0.0000   0.0000   0.0000  -0.0105   0.0000
 238 O_a :4f3+   0.0000   0.0094   0.0027   0.0023   0.0068   0.0000   0.0157

    Orbital        21       22       23       24       25       26
   3 Cl_a:1s    -0.0174  -0.0001  -0.0000  -0.0052   0.0000  -0.0108
   5 Cl_a:1s     0.0719  -0.0110   0.0000   0.0608  -0.0000   0.0030
   6 Cl_a:1s     0.7119  -0.3432  -0.0000  -0.3476   0.0000  -0.2606
   7 Cl_a:1s    -1.0123   0.1312   0.0000  -7.3019  -0.0000  -2.4715
   8 Cl_a:1s    -8.4311  -0.9497   0.0000  -9.9225  -0.0000 -16.0707
  12 Cl_a:2px   -0.0032  -0.0055  -0.0000   0.0166   0.0000  -0.0024
  13 Cl_a:2py   -0.0179   0.0121   0.0000   0.0360   0.0000  -0.0076
  18 Cl_a:2px    0.0250   0.0188   0.0000  -0.0280  -0.0000   0.0451
  19 Cl_a:2py    0.0913   0.0062   0.0000  -0.1008  -0.0000  -0.0066
  21 Cl_a:2px   -0.1532  -1.0799  -0.0000   0.4220   0.0000   0.7659
  22 Cl_a:2py   -0.1031   0.3309   0.0000  -1.7800  -0.0000  -0.5509
  23 Cl_a:2pz   -0.0000   0.0000  -0.7783  -0.0000   0.6626   0.0000
  24 Cl_a:2px    0.1919  -3.5648  -0.0000   0.8710   0.0000   0.8623
  25 Cl_a:2py    0.8875   0.3487   0.0000  -2.4602  -0.0000  -2.8329
  26 Cl_a:2pz   -0.0000   0.0000  -3.0624  -0.0000   1.5901   0.0000
  27 Cl_a:2px   -4.6442   4.9629   0.0000  -3.4690  -0.0000  -9.4559
  28 Cl_a:2py   -4.4462  -0.6189  -0.0000   1.5700  -0.0000  -1.1003
  29 Cl_a:2pz   -0.0000   0.0000   4.5599  -0.0000  -2.4736   0.0000
  40 Cl_a:3d2-   0.0076   0.0255  -0.0000  -0.0302   0.0000   0.0118
  42 Cl_a:3d0   -0.0161  -0.0080   0.0000   0.0243   0.0000   0.0050
  44 Cl_a:3d2+  -0.0202   0.0002  -0.0000   0.0267   0.0000  -0.0021
  45 Cl_a:3d2-  -0.0719  -0.2240  -0.0000   0.0043   0.0000   0.2296
  46 Cl_a:3d1-  -0.0000   0.0000  -0.1817  -0.0000   0.1534   0.0000
  47 Cl_a:3d0    0.0824  -0.0382  -0.0000   0.2447   0.0000  -0.0303
  48 Cl_a:3d1+   0.0000   0.0000  -0.0203   0.0000   0.0408   0.0000
  49 Cl_a:3d2+   0.0668  -0.2421  -0.0000   0.4093   0.0000   0.2037
  50 Cl_a:3d2-   0.0148  -0.5009  -0.0000   0.2131   0.0000  -0.0234
  51 Cl_a:3d1-  -0.0000   0.0000  -0.5119  -0.0000   0.3036   0.0000
  52 Cl_a:3d0   -0.1597   0.0848   0.0000   0.0913  -0.0000   0.1682
  53 Cl_a:3d1+  -0.0000   0.0000  -0.1709  -0.0000  -0.0412  -0.0000
  54 Cl_a:3d2+  -0.0786  -0.2788  -0.0000   0.2278   0.0000   0.3209
  69 Cl_a:4f3-  -0.0013   0.0111   0.0000   0.0002  -0.0000  -0.0074
  72 Cl_a:4f0   -0.0000   0.0000  -0.0111  -0.0000   0.0030   0.0000
  75 Cl_a:4f3+   0.0053  -0.0160  -0.0000   0.0110   0.0000  -0.0056
  76 Cl_a:4f3-   0.0087  -0.0714  -0.0000   0.0563   0.0000   0.0636
  77 Cl_a:4f2-   0.0000   0.0000  -0.0131   0.0000   0.0048   0.0000
  78 Cl_a:4f1-   0.0064  -0.0238  -0.0000   0.0539   0.0000   0.0085
  79 Cl_a:4f0    0.0000  -0.0000   0.0401   0.0000  -0.0153  -0.0000
  80 Cl_a:4f1+   0.0083   0.0173   0.0000   0.0067  -0.0000  -0.0135
  81 Cl_a:4f2+   0.0000  -0.0000   0.0422   0.0000  -0.0290  -0.0000
  82 Cl_a:4f3+   0.0051   0.0382   0.0000   0.0024  -0.0000  -0.0207
  84 N_a :1s     0.0133  -0.0082   0.0000  -0.0309  -0.0000   0.0082
  86 N_a :1s    -0.0215   0.0595   0.0000   0.0373  -0.0000   0.1401
  87 N_a :1s    -0.5060   0.7817   0.0000   1.9587  -0.0000   1.4477
  88 N_a :1s    -0.6439   0.5110  -0.0000   9.0172   0.0000  10.0807
  89 N_a :1s    -2.9241   1.8469   0.0000   0.5673  -0.0000   8.1121
  90 N_a :2px   -0.0078   0.0032   0.0000   0.0156  -0.0000  -0.0107
  91 N_a :2py   -0.0238   0.0104  -0.0000   0.0209   0.0000  -0.0143
  92 N_a :2pz    0.0000  -0.0000   0.0006  -0.0000   0.0489   0.0000
  96 N_a :2px   -0.0152   0.0586   0.0000  -0.0089  -0.0000   0.0872
  97 N_a :2py   -0.0226   0.0146   0.0000  -0.0882  -0.0000   0.0041
  98 N_a :2pz   -0.0000  -0.0000   0.0285   0.0000   0.0115  -0.0000
  99 N_a :2px    0.0195   0.8202   0.0000  -0.3905  -0.0000  -0.5249
 100 N_a :2py   -0.1389  -1.0764  -0.0000   0.2205   0.0000  -0.2071
 101 N_a :2pz    0.0000  -0.0000   0.8524   0.0000  -0.4323  -0.0000
 102 N_a :2px   -3.3956   3.1696   0.0000  -0.7231  -0.0000  -2.7464
 103 N_a :2py   -4.8950  -0.8965  -0.0000  -1.6327  -0.0000   0.0663
 104 N_a :2pz   -0.0000  -0.0000   2.2458  -0.0000   2.2411  -0.0000
 105 N_a :2px    6.9915  -3.0190  -0.0000   7.9121   0.0000  13.0217
 106 N_a :2py    7.0399  -0.3399  -0.0000  -1.7092   0.0000  12.3556
 107 N_a :2pz    0.0000  -0.0000  -2.2782   0.0000   7.6262  -0.0000
 118 N_a :3d2-  -0.0432   0.0080  -0.0000  -0.0020  -0.0000   0.0092
 120 N_a :3d0    0.0226   0.0026  -0.0000  -0.0088   0.0000  -0.0106
 121 N_a :3d1+   0.0000  -0.0000   0.0153   0.0000  -0.0136  -0.0000
 122 N_a :3d2+   0.0290   0.0385   0.0000  -0.0181  -0.0000   0.0437
 123 N_a :3d2-  -0.1866  -0.5327  -0.0000   0.2939   0.0000   0.3032
 124 N_a :3d1-  -0.0000   0.0000  -0.2547  -0.0000   0.3224   0.0000
 125 N_a :3d0    0.0203   0.0509  -0.0000   0.0371  -0.0000  -0.0791
 126 N_a :3d1+  -0.0000   0.0000   0.0121  -0.0000  -0.0761  -0.0000
 127 N_a :3d2+   0.2157  -0.1704  -0.0000   0.3775   0.0000   0.1734
 128 N_a :3d2-  -0.4383  -0.9591  -0.0000   0.5211   0.0000   0.6991
 129 N_a :3d1-   0.0000   0.0000  -0.6630   0.0000   0.5227   0.0000
 130 N_a :3d0    0.0271   0.0969   0.0000  -0.4165  -0.0000   0.0930
 131 N_a :3d1+  -0.0000   0.0000  -0.1749  -0.0000   1.0001   0.0000
 132 N_a :3d2+  -0.8379  -0.0887  -0.0000   0.2780   0.0000  -0.0485
 147 N_a :4f3-  -0.0108  -0.0014  -0.0000  -0.0100   0.0000  -0.0114
 148 N_a :4f2-  -0.0000   0.0000  -0.0002  -0.0000   0.0155   0.0000
 149 N_a :4f1-  -0.0101   0.0073  -0.0000  -0.0042  -0.0000   0.0021
 151 N_a :4f1+  -0.0039   0.0110  -0.0000   0.0046  -0.0000  -0.0046
 153 N_a :4f3+  -0.0056   0.0212  -0.0000   0.0007   0.0000   0.0234
 154 N_a :4f3-  -0.0133   0.0024   0.0000  -0.1274  -0.0000   0.0076
 155 N_a :4f2-   0.0000  -0.0000   0.0457   0.0000  -0.0356   0.0000
 156 N_a :4f1-  -0.0336   0.0414   0.0000  -0.0250   0.0000  -0.0219
 157 N_a :4f0   -0.0000   0.0000  -0.0725  -0.0000   0.0493   0.0000
 158 N_a :4f1+  -0.0561  -0.0050  -0.0000   0.0036   0.0000  -0.0030
 159 N_a :4f2+  -0.0000   0.0000  -0.0125  -0.0000   0.0247   0.0000
 160 N_a :4f3+  -0.0171  -0.0024  -0.0000   0.0283   0.0000   0.0784
 162 O_a :1s     0.0066  -0.0010  -0.0000  -0.0111   0.0000   0.0171
 164 O_a :1s     0.0268  -0.0628  -0.0000  -0.0096   0.0000  -0.0937
 165 O_a :1s     0.3103  -0.4898  -0.0000  -0.2541   0.0000  -0.6483
 166 O_a :1s     1.8250   0.1175   0.0000  -2.3171  -0.0000  -3.7448
 167 O_a :1s    11.4228  -1.7305  -0.0000   7.4525   0.0000   3.6903
 169 O_a :2py    0.0151  -0.0065  -0.0000  -0.0219   0.0000   0.0205
 170 O_a :2pz   -0.0000   0.0000   0.0015   0.0000  -0.0266  -0.0000
 174 O_a :2px   -0.0277   0.0339   0.0000   0.0066  -0.0000   0.0524
 175 O_a :2py    0.0276   0.0105  -0.0000   0.0196   0.0000   0.0207
 176 O_a :2pz    0.0000   0.0000  -0.0140  -0.0000   0.0024   0.0000
 177 O_a :2px   -0.2441   0.2614   0.0000  -0.0891  -0.0000   0.2914
 178 O_a :2py    0.3107   0.6230   0.0000  -0.3424  -0.0000   0.1956
 179 O_a :2pz   -0.0000   0.0000  -0.2800  -0.0000   0.1207   0.0000
 180 O_a :2px    2.1480   0.1733   0.0000  -0.9122  -0.0000   2.2653
 181 O_a :2py    2.9525   0.3439   0.0000  -0.5164  -0.0000  -0.1414
 182 O_a :2pz    0.0000  -0.0000   0.6538   0.0000  -3.2682  -0.0000
 183 O_a :2px   -4.6266  -1.2521   0.0000  -6.7474  -0.0000  -5.9802
 184 O_a :2py   -5.0249   0.9354   0.0000  -0.9663  -0.0000 -15.1271
 185 O_a :2pz   -0.0000  -0.0000  -1.8196  -0.0000  -6.4082  -0.0000
 196 O_a :3d2-  -0.0099  -0.0075   0.0000  -0.0117  -0.0000  -0.0015
 199 O_a :3d1+   0.0000  -0.0000   0.0104   0.0000  -0.0027  -0.0000
 200 O_a :3d2+   0.0079  -0.0031   0.0000  -0.0027  -0.0000  -0.0114
 201 O_a :3d2-  -0.0941  -0.0755  -0.0000   0.0972  -0.0000  -0.0609
 202 O_a :3d1-   0.0000  -0.0000   0.0268   0.0000  -0.0716  -0.0000
 203 O_a :3d0    0.0243  -0.0337   0.0000  -0.0388   0.0000   0.0582
 204 O_a :3d1+   0.0000  -0.0000   0.0565   0.0000   0.0249  -0.0000
 205 O_a :3d2+   0.0094  -0.0873   0.0000  -0.0112  -0.0000  -0.0537
 206 O_a :3d2-  -0.2749   0.0331  -0.0000   0.1301   0.0000  -0.1864
 207 O_a :3d1-  -0.0000  -0.0000  -0.0470  -0.0000  -0.0713  -0.0000
 208 O_a :3d0    0.2846  -0.0567   0.0000  -0.0237  -0.0000   0.1778
 209 O_a :3d1+  -0.0000   0.0000  -0.1629  -0.0000   0.2691   0.0000
 210 O_a :3d2+  -0.1033  -0.2843  -0.0000   0.1148   0.0000  -0.1036
 232 O_a :4f3-   0.0311   0.0059  -0.0000  -0.0132   0.0000   0.0046
 233 O_a :4f2-  -0.0000   0.0000  -0.0084  -0.0000   0.0260   0.0000
 234 O_a :4f1-  -0.0058   0.0108   0.0000   0.0008  -0.0000  -0.0084
 235 O_a :4f0    0.0000  -0.0000   0.0026   0.0000   0.0168  -0.0000
 236 O_a :4f1+  -0.0275   0.0114  -0.0000   0.0065  -0.0000  -0.0273
 237 O_a :4f2+   0.0000   0.0000   0.0046  -0.0000  -0.0362   0.0000
 238 O_a :4f3+   0.0041   0.0350  -0.0000  -0.0085  -0.0000   0.0192

  Total CPU  time used in SIRIUS :  17.68 seconds
  Total wall time used in SIRIUS :  17.79 seconds

 
     Date and time (Linux)  : Sat Jul 27 17:43:00 2024
     Host name              : dn006                                   


                     .---------------------------------------.
                     | End of Wave Function Section (SIRIUS) |
                     `---------------------------------------'



                 .------------------------------------------------.
                 | Starting in Dynamic Property Section (RESPONS) |
                 `------------------------------------------------'


 ----------------------------------------------------------------------------------------
  RESPONSE  -  an MCSCF, MC-srDFT, DFT, SOPPA and SOPPA-srDFT response property program
 ----------------------------------------------------------------------------------------


 -------- OUTPUT FROM RESPONSE INPUT PROCESSING --------




 Quadratic Response calculation
 ------------------------------

 First hyperpolarizability calculation : HYPCAL= T

 Spin of operator A , ISPINA=    0
 Spin of operator B , ISPINB=    0
 Spin of operator C , ISPINC=    0

  5 B-frequencies  0.000000D+00  6.344563D-03  1.268913D-02  1.903369D-02  2.537825D-02
  5 C-frequencies  0.000000D+00  6.344563D-03  1.268913D-02  1.903369D-02  2.537825D-02


 Print level                                    : IPRHYP =   2
 Maximum number of iterations in lin.rsp. solver: MAXITL =  60
 Threshold for convergence of linear resp. eq.s : THCLR  = 1.000D-03
 Maximum iterations in optimal orbital algorithm: MAXITO =   5
 Direct one-index transformation                : DIROIT = T

    3 A OPERATORS OF SYMMETRY NO:    1 AND LABELS:

          XDIPLEN 
          YDIPLEN 
          ZDIPLEN 

    3 B OPERATORS OF SYMMETRY NO:    1 AND LABELS:

          XDIPLEN 
          YDIPLEN 
          ZDIPLEN 

    3 C OPERATORS OF SYMMETRY NO:    1 AND LABELS:

          XDIPLEN 
          YDIPLEN 
          ZDIPLEN 


   SCF energy         :     -588.769990248808313
 -- inactive part     :     -673.918410033261353
 -- nuclear repulsion :       85.148419784453068


                     ***************************************
                     *** RHF response calculation (TDHF) ***
                     ***************************************



 Linear response calculations for quadratic response
 - singlet property operator of symmetry    1  ( A  )


 Perturbation symmetry.     KSYMOP:           1
 Perturbation spin symmetry.TRPLET:           F
 Orbital variables.         KZWOPT:        3552
 Configuration variables.   KZCONF:           0
 Total number of variables. KZVAR :        3552


 QRLRVE -- linear response calculation for symmetry  1  ( A  )
 QRLRVE -- operator label : XDIPLEN 
 QRLRVE -- operator spin  :   0
 QRLRVE -- frequencies :  0.000000  0.006345  0.012689  0.019034  0.025378
                          0.031723  0.038067  0.044412  0.050757



 ---  SOLVING SETS OF LINEAR EQUATIONS FOR LINEAR RESPONSE PROPERTIES ---

 Operator symmetry = 1  ( A  ); triplet =   F

RSPORT:    2 out of    9 new trial vectors linear dependent

 ** RSPCTL MICROITERATION NUMBER    1

       No.  Residual tot.,    conf., and orb.    Bnorm      Frequency 
      ----------------------------------------------------------------
         1    4.21262D+00  0.00D+00  4.21D+00  4.10D+00    0.00000D+00
         2    4.21335D+00  0.00D+00  4.21D+00  4.10D+00    6.34456D-03
         3    4.21555D+00  0.00D+00  4.22D+00  4.10D+00    1.26891D-02
         4    4.21921D+00  0.00D+00  4.22D+00  4.11D+00    1.90337D-02
         5    4.22437D+00  0.00D+00  4.22D+00  4.12D+00    2.53783D-02
         6    4.23103D+00  0.00D+00  4.23D+00  4.14D+00    3.17228D-02
         7    4.23923D+00  0.00D+00  4.24D+00  4.16D+00    3.80674D-02
         8    4.24899D+00  0.00D+00  4.25D+00  4.18D+00    4.44119D-02
         9    4.26037D+00  0.00D+00  4.26D+00  4.21D+00    5.07565D-02

 ** RSPCTL MICROITERATION NUMBER    2

       No.  Residual tot.,    conf., and orb.    Bnorm      Frequency 
      ----------------------------------------------------------------
         1    1.21729D+00  0.00D+00  1.22D+00  5.08D+00    0.00000D+00
         2    1.21769D+00  0.00D+00  1.22D+00  5.08D+00    6.34456D-03
         3    1.21887D+00  0.00D+00  1.22D+00  5.09D+00    1.26891D-02
         4    1.22086D+00  0.00D+00  1.22D+00  5.10D+00    1.90337D-02
         5    1.22367D+00  0.00D+00  1.22D+00  5.12D+00    2.53783D-02
         6    1.22731D+00  0.00D+00  1.23D+00  5.15D+00    3.17228D-02
         7    1.23184D+00  0.00D+00  1.23D+00  5.18D+00    3.80674D-02
         8    1.23727D+00  0.00D+00  1.24D+00  5.22D+00    4.44119D-02
         9    1.24366D+00  0.00D+00  1.24D+00  5.26D+00    5.07565D-02

 ** RSPCTL MICROITERATION NUMBER    3

       No.  Residual tot.,    conf., and orb.    Bnorm      Frequency 
      ----------------------------------------------------------------
         1    2.61954D-01  0.00D+00  2.62D-01  5.23D+00    0.00000D+00
         2    2.62127D-01  0.00D+00  2.62D-01  5.23D+00    6.34456D-03
         3    2.62645D-01  0.00D+00  2.63D-01  5.24D+00    1.26891D-02
         4    2.63515D-01  0.00D+00  2.64D-01  5.26D+00    1.90337D-02
         5    2.64746D-01  0.00D+00  2.65D-01  5.28D+00    2.53783D-02
         6    2.66351D-01  0.00D+00  2.66D-01  5.31D+00    3.17228D-02
         7    2.68350D-01  0.00D+00  2.68D-01  5.35D+00    3.80674D-02
         8    2.70765D-01  0.00D+00  2.71D-01  5.39D+00    4.44119D-02
         9    2.73626D-01  0.00D+00  2.74D-01  5.44D+00    5.07565D-02

 ** RSPCTL MICROITERATION NUMBER    4

       No.  Residual tot.,    conf., and orb.    Bnorm      Frequency 
      ----------------------------------------------------------------
         1    5.64758D-02  0.00D+00  5.65D-02  5.24D+00    0.00000D+00
         2    5.65314D-02  0.00D+00  5.65D-02  5.24D+00    6.34456D-03
         3    5.66988D-02  0.00D+00  5.67D-02  5.25D+00    1.26891D-02
         4    5.69803D-02  0.00D+00  5.70D-02  5.27D+00    1.90337D-02
         5    5.73793D-02  0.00D+00  5.74D-02  5.29D+00    2.53783D-02
         6    5.79013D-02  0.00D+00  5.79D-02  5.32D+00    3.17228D-02
         7    5.85531D-02  0.00D+00  5.86D-02  5.35D+00    3.80674D-02
         8    5.93440D-02  0.00D+00  5.93D-02  5.40D+00    4.44119D-02
         9    6.02854D-02  0.00D+00  6.03D-02  5.45D+00    5.07565D-02

 ** RSPCTL MICROITERATION NUMBER    5

       No.  Residual tot.,    conf., and orb.    Bnorm      Frequency 
      ----------------------------------------------------------------
         1    1.06470D-02  0.00D+00  1.06D-02  5.24D+00    0.00000D+00
         2    1.06620D-02  0.00D+00  1.07D-02  5.24D+00    6.34456D-03
         3    1.07073D-02  0.00D+00  1.07D-02  5.25D+00    1.26891D-02
         4    1.07836D-02  0.00D+00  1.08D-02  5.27D+00    1.90337D-02
         5    1.08919D-02  0.00D+00  1.09D-02  5.29D+00    2.53783D-02
         6    1.10340D-02  0.00D+00  1.10D-02  5.32D+00    3.17228D-02
         7    1.12119D-02  0.00D+00  1.12D-02  5.35D+00    3.80674D-02
         8    1.14285D-02  0.00D+00  1.14D-02  5.40D+00    4.44119D-02
         9    1.16874D-02  0.00D+00  1.17D-02  5.45D+00    5.07565D-02

 ** RSPCTL MICROITERATION NUMBER    6

       No.  Residual tot.,    conf., and orb.    Bnorm      Frequency 
      ----------------------------------------------------------------
         1    1.54863D-03  0.00D+00  1.55D-03  5.24D+00    0.00000D+00
         2    1.55117D-03  0.00D+00  1.55D-03  5.24D+00    6.34456D-03
         3    1.55882D-03  0.00D+00  1.56D-03  5.25D+00    1.26891D-02
         4    1.57169D-03  0.00D+00  1.57D-03  5.27D+00    1.90337D-02
         5    1.58999D-03  0.00D+00  1.59D-03  5.29D+00    2.53783D-02
         6    1.61401D-03  0.00D+00  1.61D-03  5.32D+00    3.17228D-02
         7    1.64412D-03  0.00D+00  1.64D-03  5.36D+00    3.80674D-02
         8    1.68083D-03  0.00D+00  1.68D-03  5.40D+00    4.44119D-02
         9    1.72478D-03  0.00D+00  1.72D-03  5.45D+00    5.07565D-02

 *** THE REQUESTED    9 SOLUTION VECTORS CONVERGED

 Convergence of RSP solution vectors, threshold = 1.00D-03
 ---------------------------------------------------------------
 (dimension of paired reduced space:  104)
 RSP solution vector no.    1; norm of residual   2.96D-04
 RSP solution vector no.    2; norm of residual   2.96D-04
 RSP solution vector no.    3; norm of residual   2.97D-04
 RSP solution vector no.    4; norm of residual   2.98D-04
 RSP solution vector no.    5; norm of residual   3.01D-04
 RSP solution vector no.    6; norm of residual   3.03D-04
 RSP solution vector no.    7; norm of residual   3.07D-04
 RSP solution vector no.    8; norm of residual   3.11D-04
 RSP solution vector no.    9; norm of residual   3.17D-04

 *** RSPCTL MICROITERATIONS CONVERGED

@ QRLRVE: SINGLET SOLUTION FOR SYMMETRY    1  ( A  )    LABEL   XDIPLEN     FREQUENCY   0.000000D+00

@ QRLRVE:  << XDIPLEN  ; XDIPLEN  >> (   0.00000):     31.6723872004    

@ QRLRVE:  << YDIPLEN  ; XDIPLEN  >> (   0.00000):     12.8449736827    

@ QRLRVE:  << ZDIPLEN  ; XDIPLEN  >> (   0.00000):   -2.048498666893E-15

@ QRLRVE: SINGLET SOLUTION FOR SYMMETRY    1  ( A  )    LABEL   XDIPLEN     FREQUENCY   0.634456D-02

@ QRLRVE:  << XDIPLEN  ; XDIPLEN  >> (   0.00634):     31.6794331641    

@ QRLRVE:  << YDIPLEN  ; XDIPLEN  >> (   0.00634):     12.8530119458    

@ QRLRVE:  << ZDIPLEN  ; XDIPLEN  >> (   0.00634):   -2.065738214252E-15

@ QRLRVE: SINGLET SOLUTION FOR SYMMETRY    1  ( A  )    LABEL   XDIPLEN     FREQUENCY   0.126891D-01

@ QRLRVE:  << XDIPLEN  ; XDIPLEN  >> (   0.01269):     31.7006101278    

@ QRLRVE:  << YDIPLEN  ; XDIPLEN  >> (   0.01269):     12.8771968269    

@ QRLRVE:  << ZDIPLEN  ; XDIPLEN  >> (   0.01269):   -2.117863409495E-15

@ QRLRVE: SINGLET SOLUTION FOR SYMMETRY    1  ( A  )    LABEL   XDIPLEN     FREQUENCY   0.190337D-01

@ QRLRVE:  << XDIPLEN  ; XDIPLEN  >> (   0.01903):     31.7360361076    

@ QRLRVE:  << YDIPLEN  ; XDIPLEN  >> (   0.01903):     12.9177403104    

@ QRLRVE:  << ZDIPLEN  ; XDIPLEN  >> (   0.01903):   -2.206111589600E-15

@ QRLRVE: SINGLET SOLUTION FOR SYMMETRY    1  ( A  )    LABEL   XDIPLEN     FREQUENCY   0.253783D-01

@ QRLRVE:  << XDIPLEN  ; XDIPLEN  >> (   0.02538):     31.7859104937    

@ QRLRVE:  << YDIPLEN  ; XDIPLEN  >> (   0.02538):     12.9750014878    

@ QRLRVE:  << ZDIPLEN  ; XDIPLEN  >> (   0.02538):   -2.332605105982E-15

@ QRLRVE: SINGLET SOLUTION FOR SYMMETRY    1  ( A  )    LABEL   XDIPLEN     FREQUENCY   0.317228D-01

@ QRLRVE:  << XDIPLEN  ; XDIPLEN  >> (   0.03172):     31.8505182261    

@ QRLRVE:  << YDIPLEN  ; XDIPLEN  >> (   0.03172):     13.0494955314    

@ QRLRVE:  << ZDIPLEN  ; XDIPLEN  >> (   0.03172):   -2.500445820303E-15

@ QRLRVE: SINGLET SOLUTION FOR SYMMETRY    1  ( A  )    LABEL   XDIPLEN     FREQUENCY   0.380674D-01

@ QRLRVE:  << XDIPLEN  ; XDIPLEN  >> (   0.03807):     31.9302359132    

@ QRLRVE:  << YDIPLEN  ; XDIPLEN  >> (   0.03807):     13.1419068829    

@ QRLRVE:  << ZDIPLEN  ; XDIPLEN  >> (   0.03807):   -2.713856459860E-15

@ QRLRVE: SINGLET SOLUTION FOR SYMMETRY    1  ( A  )    LABEL   XDIPLEN     FREQUENCY   0.444119D-01

@ QRLRVE:  << XDIPLEN  ; XDIPLEN  >> (   0.04441):     32.0255401940    

@ QRLRVE:  << YDIPLEN  ; XDIPLEN  >> (   0.04441):     13.2531073423    

@ QRLRVE:  << ZDIPLEN  ; XDIPLEN  >> (   0.04441):   -2.978378979513E-15

@ QRLRVE: SINGLET SOLUTION FOR SYMMETRY    1  ( A  )    LABEL   XDIPLEN     FREQUENCY   0.507565D-01

@ QRLRVE:  << XDIPLEN  ; XDIPLEN  >> (   0.05076):     32.1370187690    

@ QRLRVE:  << YDIPLEN  ; XDIPLEN  >> (   0.05076):     13.3841800391    

@ QRLRVE:  << ZDIPLEN  ; XDIPLEN  >> (   0.05076):   -3.301144696734E-15


 QRLRVE -- linear response calculation for symmetry  1  ( A  )
 QRLRVE -- operator label : YDIPLEN 
 QRLRVE -- operator spin  :   0
 QRLRVE -- frequencies :  0.000000  0.006345  0.012689  0.019034  0.025378
                          0.031723  0.038067  0.044412  0.050757



 ---  SOLVING SETS OF LINEAR EQUATIONS FOR LINEAR RESPONSE PROPERTIES ---

 Operator symmetry = 1  ( A  ); triplet =   F

RSPORT:    2 out of    9 new trial vectors linear dependent

 ** RSPCTL MICROITERATION NUMBER    1

       No.  Residual tot.,    conf., and orb.    Bnorm      Frequency 
      ----------------------------------------------------------------
         1    4.71548D+00  0.00D+00  4.72D+00  5.60D+00    0.00000D+00
         2    4.71717D+00  0.00D+00  4.72D+00  5.61D+00    6.34456D-03
         3    4.72225D+00  0.00D+00  4.72D+00  5.62D+00    1.26891D-02
         4    4.73075D+00  0.00D+00  4.73D+00  5.64D+00    1.90337D-02
         5    4.74271D+00  0.00D+00  4.74D+00  5.67D+00    2.53783D-02
         6    4.75819D+00  0.00D+00  4.76D+00  5.70D+00    3.17228D-02
         7    4.77728D+00  0.00D+00  4.78D+00  5.75D+00    3.80674D-02
         8    4.80008D+00  0.00D+00  4.80D+00  5.80D+00    4.44119D-02
         9    4.82671D+00  0.00D+00  4.83D+00  5.86D+00    5.07565D-02

 ** RSPCTL MICROITERATION NUMBER    2

       No.  Residual tot.,    conf., and orb.    Bnorm      Frequency 
      ----------------------------------------------------------------
         1    1.53083D+00  0.00D+00  1.53D+00  7.42D+00    0.00000D+00
         2    1.53215D+00  0.00D+00  1.53D+00  7.43D+00    6.34456D-03
         3    1.53615D+00  0.00D+00  1.54D+00  7.45D+00    1.26891D-02
         4    1.54286D+00  0.00D+00  1.54D+00  7.48D+00    1.90337D-02
         5    1.55234D+00  0.00D+00  1.55D+00  7.53D+00    2.53783D-02
         6    1.56470D+00  0.00D+00  1.56D+00  7.60D+00    3.17228D-02
         7    1.58007D+00  0.00D+00  1.58D+00  7.68D+00    3.80674D-02
         8    1.59862D+00  0.00D+00  1.60D+00  7.78D+00    4.44119D-02
         9    1.62056D+00  0.00D+00  1.62D+00  7.89D+00    5.07565D-02

 ** RSPCTL MICROITERATION NUMBER    3

       No.  Residual tot.,    conf., and orb.    Bnorm      Frequency 
      ----------------------------------------------------------------
         1    3.85039D-01  0.00D+00  3.85D-01  7.68D+00    0.00000D+00
         2    3.85636D-01  0.00D+00  3.86D-01  7.69D+00    6.34456D-03
         3    3.87437D-01  0.00D+00  3.87D-01  7.71D+00    1.26891D-02
         4    3.90469D-01  0.00D+00  3.90D-01  7.75D+00    1.90337D-02
         5    3.94781D-01  0.00D+00  3.95D-01  7.81D+00    2.53783D-02
         6    4.00441D-01  0.00D+00  4.00D-01  7.88D+00    3.17228D-02
         7    4.07542D-01  0.00D+00  4.08D-01  7.97D+00    3.80674D-02
         8    4.16203D-01  0.00D+00  4.16D-01  8.08D+00    4.44119D-02
         9    4.26570D-01  0.00D+00  4.27D-01  8.21D+00    5.07565D-02

 ** RSPCTL MICROITERATION NUMBER    4

       No.  Residual tot.,    conf., and orb.    Bnorm      Frequency 
      ----------------------------------------------------------------
         1    8.03104D-02  0.00D+00  8.03D-02  7.69D+00    0.00000D+00
         2    8.04629D-02  0.00D+00  8.05D-02  7.70D+00    6.34456D-03
         3    8.09233D-02  0.00D+00  8.09D-02  7.72D+00    1.26891D-02
         4    8.17003D-02  0.00D+00  8.17D-02  7.77D+00    1.90337D-02
         5    8.28084D-02  0.00D+00  8.28D-02  7.82D+00    2.53783D-02
         6    8.42691D-02  0.00D+00  8.43D-02  7.90D+00    3.17228D-02
         7    8.61108D-02  0.00D+00  8.61D-02  7.99D+00    3.80674D-02
         8    8.83703D-02  0.00D+00  8.84D-02  8.10D+00    4.44119D-02
         9    9.10938D-02  0.00D+00  9.11D-02  8.23D+00    5.07565D-02

 ** RSPCTL MICROITERATION NUMBER    5

       No.  Residual tot.,    conf., and orb.    Bnorm      Frequency 
      ----------------------------------------------------------------
         1    1.32606D-02  0.00D+00  1.33D-02  7.69D+00    0.00000D+00
         2    1.32919D-02  0.00D+00  1.33D-02  7.70D+00    6.34456D-03
         3    1.33863D-02  0.00D+00  1.34D-02  7.73D+00    1.26891D-02
         4    1.35455D-02  0.00D+00  1.35D-02  7.77D+00    1.90337D-02
         5    1.37728D-02  0.00D+00  1.38D-02  7.82D+00    2.53783D-02
         6    1.40725D-02  0.00D+00  1.41D-02  7.90D+00    3.17228D-02
         7    1.44506D-02  0.00D+00  1.45D-02  7.99D+00    3.80674D-02
         8    1.49148D-02  0.00D+00  1.49D-02  8.10D+00    4.44119D-02
         9    1.54746D-02  0.00D+00  1.55D-02  8.23D+00    5.07565D-02

 ** RSPCTL MICROITERATION NUMBER    6

       No.  Residual tot.,    conf., and orb.    Bnorm      Frequency 
      ----------------------------------------------------------------
         1    2.79145D-03  0.00D+00  2.79D-03  7.69D+00    0.00000D+00
         2    2.79796D-03  0.00D+00  2.80D-03  7.70D+00    6.34456D-03
         3    2.81761D-03  0.00D+00  2.82D-03  7.73D+00    1.26891D-02
         4    2.85074D-03  0.00D+00  2.85D-03  7.77D+00    1.90337D-02
         5    2.89794D-03  0.00D+00  2.90D-03  7.82D+00    2.53783D-02
         6    2.96006D-03  0.00D+00  2.96D-03  7.90D+00    3.17228D-02
         7    3.03825D-03  0.00D+00  3.04D-03  7.99D+00    3.80674D-02
         8    3.13396D-03  0.00D+00  3.13D-03  8.10D+00    4.44119D-02
         9    3.24907D-03  0.00D+00  3.25D-03  8.23D+00    5.07565D-02

 *** THE REQUESTED    9 SOLUTION VECTORS CONVERGED

 Convergence of RSP solution vectors, threshold = 1.00D-03
 ---------------------------------------------------------------
 (dimension of paired reduced space:  104)
 RSP solution vector no.    1; norm of residual   3.63D-04
 RSP solution vector no.    2; norm of residual   3.63D-04
 RSP solution vector no.    3; norm of residual   3.65D-04
 RSP solution vector no.    4; norm of residual   3.67D-04
 RSP solution vector no.    5; norm of residual   3.70D-04
 RSP solution vector no.    6; norm of residual   3.75D-04
 RSP solution vector no.    7; norm of residual   3.80D-04
 RSP solution vector no.    8; norm of residual   3.87D-04
 RSP solution vector no.    9; norm of residual   3.95D-04

 *** RSPCTL MICROITERATIONS CONVERGED

@ QRLRVE: SINGLET SOLUTION FOR SYMMETRY    1  ( A  )    LABEL   YDIPLEN     FREQUENCY   0.000000D+00

@ QRLRVE:  << XDIPLEN  ; YDIPLEN  >> (   0.00000):     12.8457369830    

@ QRLRVE:  << YDIPLEN  ; YDIPLEN  >> (   0.00000):     47.7381445913    

@ QRLRVE:  << ZDIPLEN  ; YDIPLEN  >> (   0.00000):    1.196256737302E-15

@ QRLRVE: SINGLET SOLUTION FOR SYMMETRY    1  ( A  )    LABEL   YDIPLEN     FREQUENCY   0.634456D-02

@ QRLRVE:  << XDIPLEN  ; YDIPLEN  >> (   0.00634):     12.8537767017    

@ QRLRVE:  << YDIPLEN  ; YDIPLEN  >> (   0.00634):     47.7589212503    

@ QRLRVE:  << ZDIPLEN  ; YDIPLEN  >> (   0.00634):    1.192215781481E-15

@ QRLRVE: SINGLET SOLUTION FOR SYMMETRY    1  ( A  )    LABEL   YDIPLEN     FREQUENCY   0.126891D-01

@ QRLRVE:  << XDIPLEN  ; YDIPLEN  >> (   0.01269):     12.8779659698    

@ QRLRVE:  << YDIPLEN  ; YDIPLEN  >> (   0.01269):     47.8214234157    

@ QRLRVE:  << ZDIPLEN  ; YDIPLEN  >> (   0.01269):    1.180093690288E-15

@ QRLRVE: SINGLET SOLUTION FOR SYMMETRY    1  ( A  )    LABEL   YDIPLEN     FREQUENCY   0.190337D-01

@ QRLRVE:  << XDIPLEN  ; YDIPLEN  >> (   0.01903):     12.9185168327    

@ QRLRVE:  << YDIPLEN  ; YDIPLEN  >> (   0.01903):     47.9261718323    

@ QRLRVE:  << ZDIPLEN  ; YDIPLEN  >> (   0.01903):    1.159894708398E-15

@ QRLRVE: SINGLET SOLUTION FOR SYMMETRY    1  ( A  )    LABEL   YDIPLEN     FREQUENCY   0.253783D-01

@ QRLRVE:  << XDIPLEN  ; YDIPLEN  >> (   0.02538):     12.9757884852    

@ QRLRVE:  << YDIPLEN  ; YDIPLEN  >> (   0.02538):     48.0740485438    

@ QRLRVE:  << ZDIPLEN  ; YDIPLEN  >> (   0.02538):    1.131632489779E-15

@ QRLRVE: SINGLET SOLUTION FOR SYMMETRY    1  ( A  )    LABEL   YDIPLEN     FREQUENCY   0.317228D-01

@ QRLRVE:  << XDIPLEN  ; YDIPLEN  >> (   0.03172):     13.0502962481    

@ QRLRVE:  << YDIPLEN  ; YDIPLEN  >> (   0.03172):     48.2663188278    

@ QRLRVE:  << ZDIPLEN  ; YDIPLEN  >> (   0.03172):    1.095340666144E-15

@ QRLRVE: SINGLET SOLUTION FOR SYMMETRY    1  ( A  )    LABEL   YDIPLEN     FREQUENCY   0.380674D-01

@ QRLRVE:  << XDIPLEN  ; YDIPLEN  >> (   0.03807):     13.1427247608    

@ QRLRVE:  << YDIPLEN  ; YDIPLEN  >> (   0.03807):     48.5046634285    

@ QRLRVE:  << ZDIPLEN  ; YDIPLEN  >> (   0.03807):    1.051089126340E-15

@ QRLRVE: SINGLET SOLUTION FOR SYMMETRY    1  ( A  )    LABEL   YDIPLEN     FREQUENCY   0.444119D-01

@ QRLRVE:  << XDIPLEN  ; YDIPLEN  >> (   0.04441):     13.2539460748    

@ QRLRVE:  << YDIPLEN  ; YDIPLEN  >> (   0.04441):     48.7912227640    

@ QRLRVE:  << ZDIPLEN  ; YDIPLEN  >> (   0.04441):    9.990077022636E-16

@ QRLRVE: SINGLET SOLUTION FOR SYMMETRY    1  ( A  )    LABEL   YDIPLEN     FREQUENCY   0.507565D-01

@ QRLRVE:  << XDIPLEN  ; YDIPLEN  >> (   0.05076):     13.3850436326    

@ QRLRVE:  << YDIPLEN  ; YDIPLEN  >> (   0.05076):     49.1286555076    

@ QRLRVE:  << ZDIPLEN  ; YDIPLEN  >> (   0.05076):    9.393197813000E-16


 QRLRVE -- linear response calculation for symmetry  1  ( A  )
 QRLRVE -- operator label : ZDIPLEN 
 QRLRVE -- operator spin  :   0
 QRLRVE -- frequencies :  0.000000  0.006345  0.012689  0.019034  0.025378
                          0.031723  0.038067  0.044412  0.050757



 ---  SOLVING SETS OF LINEAR EQUATIONS FOR LINEAR RESPONSE PROPERTIES ---

 Operator symmetry = 1  ( A  ); triplet =   F

[...]
@ B-freq = 0.019034  C-freq = 0.019034     beta(Y;Z,Y) =     -0.00000000
@ B-freq = 0.019034  C-freq = 0.019034     beta(Z;Z,Y) =     43.39121367
@ B-freq = 0.025378  C-freq = 0.019034     beta(X;Z,Y) =     -0.00000000
@ B-freq = 0.025378  C-freq = 0.019034     beta(Y;Z,Y) =     -0.00000000
@ B-freq = 0.025378  C-freq = 0.019034     beta(Z;Z,Y) =     43.48703782
@ B-freq = 0.000000  C-freq = 0.025378     beta(X;X,Y) = beta(X,Y,X)
@ B-freq = 0.000000  C-freq = 0.025378     beta(Y;X,Y) = beta(Y,Y,X)
@ B-freq = 0.000000  C-freq = 0.025378     beta(Z;X,Y) = beta(Z,Y,X)
@ B-freq = 0.006345  C-freq = 0.025378     beta(X;X,Y) = beta(X,Y,X)
@ B-freq = 0.006345  C-freq = 0.025378     beta(Y;X,Y) = beta(Y,Y,X)
@ B-freq = 0.006345  C-freq = 0.025378     beta(Z;X,Y) = beta(Z,Y,X)
@ B-freq = 0.012689  C-freq = 0.025378     beta(X;X,Y) = beta(X,Y,X)
@ B-freq = 0.012689  C-freq = 0.025378     beta(Y;X,Y) = beta(Y,Y,X)
@ B-freq = 0.012689  C-freq = 0.025378     beta(Z;X,Y) = beta(Z,Y,X)
@ B-freq = 0.019034  C-freq = 0.025378     beta(X;X,Y) = beta(X,Y,X)
@ B-freq = 0.019034  C-freq = 0.025378     beta(Y;X,Y) = beta(Y,Y,X)
@ B-freq = 0.019034  C-freq = 0.025378     beta(Z;X,Y) = beta(Z,Y,X)
@ B-freq = 0.025378  C-freq = 0.025378     beta(X;X,Y) = beta(X,Y,X)
@ B-freq = 0.025378  C-freq = 0.025378     beta(Y;X,Y) = beta(Y,Y,X)
@ B-freq = 0.025378  C-freq = 0.025378     beta(Z;X,Y) = beta(Z,Y,X)
@ B-freq = 0.000000  C-freq = 0.025378     beta(X;Y,Y) = beta(X,Y,Y)
@ B-freq = 0.000000  C-freq = 0.025378     beta(Y;Y,Y) = beta(Y,Y,Y)
@ B-freq = 0.000000  C-freq = 0.025378     beta(Z;Y,Y) = beta(Z,Y,Y)
@ B-freq = 0.006345  C-freq = 0.025378     beta(X;Y,Y) = beta(X,Y,Y)
@ B-freq = 0.006345  C-freq = 0.025378     beta(Y;Y,Y) = beta(Y,Y,Y)
@ B-freq = 0.006345  C-freq = 0.025378     beta(Z;Y,Y) = beta(Z,Y,Y)
@ B-freq = 0.012689  C-freq = 0.025378     beta(X;Y,Y) = beta(X,Y,Y)
@ B-freq = 0.012689  C-freq = 0.025378     beta(Y;Y,Y) = beta(Y,Y,Y)
@ B-freq = 0.012689  C-freq = 0.025378     beta(Z;Y,Y) = beta(Z,Y,Y)
@ B-freq = 0.019034  C-freq = 0.025378     beta(X;Y,Y) = beta(X,Y,Y)
@ B-freq = 0.019034  C-freq = 0.025378     beta(Y;Y,Y) = beta(Y,Y,Y)
@ B-freq = 0.019034  C-freq = 0.025378     beta(Z;Y,Y) = beta(Z,Y,Y)
@ B-freq = 0.025378  C-freq = 0.025378     beta(X;Y,Y) =     -1.58565234
@ B-freq = 0.025378  C-freq = 0.025378     beta(Y;Y,Y) =     66.08318279
@ B-freq = 0.025378  C-freq = 0.025378     beta(Z;Y,Y) =     -0.00000000
@ B-freq = 0.000000  C-freq = 0.025378     beta(X;Z,Y) =     -0.00000000
@ B-freq = 0.000000  C-freq = 0.025378     beta(Y;Z,Y) =     -0.00000000
@ B-freq = 0.000000  C-freq = 0.025378     beta(Z;Z,Y) =     43.47385876
@ B-freq = 0.006345  C-freq = 0.025378     beta(X;Z,Y) =     -0.00000000
@ B-freq = 0.006345  C-freq = 0.025378     beta(Y;Z,Y) =     -0.00000000
@ B-freq = 0.006345  C-freq = 0.025378     beta(Z;Z,Y) =     43.53203246
@ B-freq = 0.012689  C-freq = 0.025378     beta(X;Z,Y) =     -0.00000000
@ B-freq = 0.012689  C-freq = 0.025378     beta(Y;Z,Y) =     -0.00000000
@ B-freq = 0.012689  C-freq = 0.025378     beta(Z;Z,Y) =     43.60846603
@ B-freq = 0.019034  C-freq = 0.025378     beta(X;Z,Y) =     -0.00000000
@ B-freq = 0.019034  C-freq = 0.025378     beta(Y;Z,Y) =     -0.00000000
@ B-freq = 0.019034  C-freq = 0.025378     beta(Z;Z,Y) =     43.69685439
@ B-freq = 0.025378  C-freq = 0.025378     beta(X;Z,Y) =      0.00000000
@ B-freq = 0.025378  C-freq = 0.025378     beta(Y;Z,Y) =     -0.00000000
@ B-freq = 0.025378  C-freq = 0.025378     beta(Z;Z,Y) =     43.78670592
@ B-freq = 0.000000  C-freq = 0.000000     beta(X;X,Z) = beta(Z,X,X)
@ B-freq = 0.000000  C-freq = 0.000000     beta(Y;X,Z) = beta(Z,Y,X)
@ B-freq = 0.000000  C-freq = 0.000000     beta(Z;X,Z) = beta(Z,Z,X)
@ B-freq = 0.006345  C-freq = 0.000000     beta(X;X,Z) = beta(X,Z,X)
@ B-freq = 0.006345  C-freq = 0.000000     beta(Y;X,Z) = beta(Y,Z,X)
@ B-freq = 0.006345  C-freq = 0.000000     beta(Z;X,Z) = beta(Z,Z,X)
@ B-freq = 0.012689  C-freq = 0.000000     beta(X;X,Z) = beta(X,Z,X)
@ B-freq = 0.012689  C-freq = 0.000000     beta(Y;X,Z) = beta(Y,Z,X)
@ B-freq = 0.012689  C-freq = 0.000000     beta(Z;X,Z) = beta(Z,Z,X)
@ B-freq = 0.019034  C-freq = 0.000000     beta(X;X,Z) = beta(X,Z,X)
@ B-freq = 0.019034  C-freq = 0.000000     beta(Y;X,Z) = beta(Y,Z,X)
@ B-freq = 0.019034  C-freq = 0.000000     beta(Z;X,Z) = beta(Z,Z,X)
@ B-freq = 0.025378  C-freq = 0.000000     beta(X;X,Z) = beta(X,Z,X)
@ B-freq = 0.025378  C-freq = 0.000000     beta(Y;X,Z) = beta(Y,Z,X)
@ B-freq = 0.025378  C-freq = 0.000000     beta(Z;X,Z) = beta(Z,Z,X)
@ B-freq = 0.000000  C-freq = 0.000000     beta(X;Y,Z) = beta(Z,Y,X)
@ B-freq = 0.000000  C-freq = 0.000000     beta(Y;Y,Z) = beta(Z,Y,Y)
@ B-freq = 0.000000  C-freq = 0.000000     beta(Z;Y,Z) = beta(Z,Z,Y)
@ B-freq = 0.006345  C-freq = 0.000000     beta(X;Y,Z) = beta(X,Z,Y)
@ B-freq = 0.006345  C-freq = 0.000000     beta(Y;Y,Z) = beta(Y,Z,Y)
@ B-freq = 0.006345  C-freq = 0.000000     beta(Z;Y,Z) = beta(Z,Z,Y)
@ B-freq = 0.012689  C-freq = 0.000000     beta(X;Y,Z) = beta(X,Z,Y)
@ B-freq = 0.012689  C-freq = 0.000000     beta(Y;Y,Z) = beta(Y,Z,Y)
@ B-freq = 0.012689  C-freq = 0.000000     beta(Z;Y,Z) = beta(Z,Z,Y)
@ B-freq = 0.019034  C-freq = 0.000000     beta(X;Y,Z) = beta(X,Z,Y)
@ B-freq = 0.019034  C-freq = 0.000000     beta(Y;Y,Z) = beta(Y,Z,Y)
@ B-freq = 0.019034  C-freq = 0.000000     beta(Z;Y,Z) = beta(Z,Z,Y)
@ B-freq = 0.025378  C-freq = 0.000000     beta(X;Y,Z) = beta(X,Z,Y)
@ B-freq = 0.025378  C-freq = 0.000000     beta(Y;Y,Z) = beta(Y,Z,Y)
@ B-freq = 0.025378  C-freq = 0.000000     beta(Z;Y,Z) = beta(Z,Z,Y)
@ B-freq = 0.000000  C-freq = 0.000000     beta(X;Z,Z) = beta(Z,Z,X)
@ B-freq = 0.000000  C-freq = 0.000000     beta(Y;Z,Z) = beta(Z,Z,Y)
@ B-freq = 0.000000  C-freq = 0.000000     beta(X;Z,Z) =     22.37211423
@ B-freq = 0.000000  C-freq = 0.000000     beta(Y;Z,Z) =     42.81982560
@ B-freq = 0.000000  C-freq = 0.000000     beta(Z;Z,Z) =     -0.00000000
@ B-freq = 0.006345  C-freq = 0.000000     beta(X;Z,Z) =     22.39166378
@ B-freq = 0.006345  C-freq = 0.000000     beta(Y;Z,Z) =     42.86043192
@ B-freq = 0.006345  C-freq = 0.000000     beta(Z;Z,Z) =     -0.00000000
@ B-freq = 0.012689  C-freq = 0.000000     beta(X;Z,Z) =     22.45043027
@ B-freq = 0.012689  C-freq = 0.000000     beta(Y;Z,Z) =     42.98247516
@ B-freq = 0.012689  C-freq = 0.000000     beta(Z;Z,Z) =     -0.00000000
@ B-freq = 0.019034  C-freq = 0.000000     beta(X;Z,Z) =     22.54876143
@ B-freq = 0.019034  C-freq = 0.000000     beta(Y;Z,Z) =     43.18660985
@ B-freq = 0.019034  C-freq = 0.000000     beta(Z;Z,Z) =     -0.00000000
@ B-freq = 0.025378  C-freq = 0.000000     beta(X;Z,Z) =     22.68721536
@ B-freq = 0.025378  C-freq = 0.000000     beta(Y;Z,Z) =     43.47385965
@ B-freq = 0.025378  C-freq = 0.000000     beta(Z;Z,Z) =     -0.00000000
@ B-freq = 0.000000  C-freq = 0.006345     beta(X;X,Z) = beta(X,Z,X)
@ B-freq = 0.000000  C-freq = 0.006345     beta(Y;X,Z) = beta(Y,Z,X)
@ B-freq = 0.000000  C-freq = 0.006345     beta(Z;X,Z) = beta(Z,Z,X)
@ B-freq = 0.006345  C-freq = 0.006345     beta(X;X,Z) = beta(X,Z,X)
@ B-freq = 0.006345  C-freq = 0.006345     beta(Y;X,Z) = beta(Y,Z,X)
@ B-freq = 0.006345  C-freq = 0.006345     beta(Z;X,Z) = beta(Z,Z,X)
@ B-freq = 0.012689  C-freq = 0.006345     beta(X;X,Z) = beta(X,Z,X)
@ B-freq = 0.012689  C-freq = 0.006345     beta(Y;X,Z) = beta(Y,Z,X)
@ B-freq = 0.012689  C-freq = 0.006345     beta(Z;X,Z) = beta(Z,Z,X)
@ B-freq = 0.019034  C-freq = 0.006345     beta(X;X,Z) = beta(X,Z,X)
@ B-freq = 0.019034  C-freq = 0.006345     beta(Y;X,Z) = beta(Y,Z,X)
@ B-freq = 0.019034  C-freq = 0.006345     beta(Z;X,Z) = beta(Z,Z,X)
@ B-freq = 0.025378  C-freq = 0.006345     beta(X;X,Z) = beta(X,Z,X)
@ B-freq = 0.025378  C-freq = 0.006345     beta(Y;X,Z) = beta(Y,Z,X)
@ B-freq = 0.025378  C-freq = 0.006345     beta(Z;X,Z) = beta(Z,Z,X)
@ B-freq = 0.000000  C-freq = 0.006345     beta(X;Y,Z) = beta(X,Z,Y)
@ B-freq = 0.000000  C-freq = 0.006345     beta(Y;Y,Z) = beta(Y,Z,Y)
@ B-freq = 0.000000  C-freq = 0.006345     beta(Z;Y,Z) = beta(Z,Z,Y)
@ B-freq = 0.006345  C-freq = 0.006345     beta(X;Y,Z) = beta(X,Z,Y)
@ B-freq = 0.006345  C-freq = 0.006345     beta(Y;Y,Z) = beta(Y,Z,Y)
@ B-freq = 0.006345  C-freq = 0.006345     beta(Z;Y,Z) = beta(Z,Z,Y)
@ B-freq = 0.012689  C-freq = 0.006345     beta(X;Y,Z) = beta(X,Z,Y)
@ B-freq = 0.012689  C-freq = 0.006345     beta(Y;Y,Z) = beta(Y,Z,Y)
@ B-freq = 0.012689  C-freq = 0.006345     beta(Z;Y,Z) = beta(Z,Z,Y)
@ B-freq = 0.019034  C-freq = 0.006345     beta(X;Y,Z) = beta(X,Z,Y)
@ B-freq = 0.019034  C-freq = 0.006345     beta(Y;Y,Z) = beta(Y,Z,Y)
@ B-freq = 0.019034  C-freq = 0.006345     beta(Z;Y,Z) = beta(Z,Z,Y)
@ B-freq = 0.025378  C-freq = 0.006345     beta(X;Y,Z) = beta(X,Z,Y)
@ B-freq = 0.025378  C-freq = 0.006345     beta(Y;Y,Z) = beta(Y,Z,Y)
@ B-freq = 0.025378  C-freq = 0.006345     beta(Z;Y,Z) = beta(Z,Z,Y)
@ B-freq = 0.000000  C-freq = 0.006345     beta(X;Z,Z) = beta(X,Z,Z)
@ B-freq = 0.000000  C-freq = 0.006345     beta(Y;Z,Z) = beta(Y,Z,Z)
@ B-freq = 0.000000  C-freq = 0.006345     beta(Z;Z,Z) = beta(Z,Z,Z)
@ B-freq = 0.006345  C-freq = 0.006345     beta(X;Z,Z) =     22.44316340
@ B-freq = 0.006345  C-freq = 0.006345     beta(Y;Z,Z) =     42.96984522
@ B-freq = 0.006345  C-freq = 0.006345     beta(Z;Z,Z) =     -0.00000000
@ B-freq = 0.012689  C-freq = 0.006345     beta(X;Z,Z) =     22.53435498
@ B-freq = 0.012689  C-freq = 0.006345     beta(Y;Z,Z) =     43.16177784
@ B-freq = 0.012689  C-freq = 0.006345     beta(Z;Z,Z) =     -0.00000000
@ B-freq = 0.019034  C-freq = 0.006345     beta(X;Z,Z) =     22.66592790
@ B-freq = 0.019034  C-freq = 0.006345     beta(Y;Z,Z) =     43.43765849
@ B-freq = 0.019034  C-freq = 0.006345     beta(Z;Z,Z) =     -0.00000000
@ B-freq = 0.025378  C-freq = 0.006345     beta(X;Z,Z) =     22.83880300
@ B-freq = 0.025378  C-freq = 0.006345     beta(Y;Z,Z) =     43.79933156
@ B-freq = 0.025378  C-freq = 0.006345     beta(Z;Z,Z) =     -0.00000000
@ B-freq = 0.000000  C-freq = 0.012689     beta(X;X,Z) = beta(X,Z,X)
@ B-freq = 0.000000  C-freq = 0.012689     beta(Y;X,Z) = beta(Y,Z,X)
@ B-freq = 0.000000  C-freq = 0.012689     beta(Z;X,Z) = beta(Z,Z,X)
@ B-freq = 0.006345  C-freq = 0.012689     beta(X;X,Z) = beta(X,Z,X)
@ B-freq = 0.006345  C-freq = 0.012689     beta(Y;X,Z) = beta(Y,Z,X)
@ B-freq = 0.006345  C-freq = 0.012689     beta(Z;X,Z) = beta(Z,Z,X)
@ B-freq = 0.012689  C-freq = 0.012689     beta(X;X,Z) = beta(X,Z,X)
@ B-freq = 0.012689  C-freq = 0.012689     beta(Y;X,Z) = beta(Y,Z,X)
@ B-freq = 0.012689  C-freq = 0.012689     beta(Z;X,Z) = beta(Z,Z,X)
@ B-freq = 0.019034  C-freq = 0.012689     beta(X;X,Z) = beta(X,Z,X)
@ B-freq = 0.019034  C-freq = 0.012689     beta(Y;X,Z) = beta(Y,Z,X)
@ B-freq = 0.019034  C-freq = 0.012689     beta(Z;X,Z) = beta(Z,Z,X)
@ B-freq = 0.025378  C-freq = 0.012689     beta(X;X,Z) = beta(X,Z,X)
@ B-freq = 0.025378  C-freq = 0.012689     beta(Y;X,Z) = beta(Y,Z,X)
@ B-freq = 0.025378  C-freq = 0.012689     beta(Z;X,Z) = beta(Z,Z,X)
@ B-freq = 0.000000  C-freq = 0.012689     beta(X;Y,Z) = beta(X,Z,Y)
@ B-freq = 0.000000  C-freq = 0.012689     beta(Y;Y,Z) = beta(Y,Z,Y)
@ B-freq = 0.000000  C-freq = 0.012689     beta(Z;Y,Z) = beta(Z,Z,Y)
@ B-freq = 0.006345  C-freq = 0.012689     beta(X;Y,Z) = beta(X,Z,Y)
@ B-freq = 0.006345  C-freq = 0.012689     beta(Y;Y,Z) = beta(Y,Z,Y)
@ B-freq = 0.006345  C-freq = 0.012689     beta(Z;Y,Z) = beta(Z,Z,Y)
@ B-freq = 0.012689  C-freq = 0.012689     beta(X;Y,Z) = beta(X,Z,Y)
@ B-freq = 0.012689  C-freq = 0.012689     beta(Y;Y,Z) = beta(Y,Z,Y)
@ B-freq = 0.012689  C-freq = 0.012689     beta(Z;Y,Z) = beta(Z,Z,Y)
@ B-freq = 0.019034  C-freq = 0.012689     beta(X;Y,Z) = beta(X,Z,Y)
@ B-freq = 0.019034  C-freq = 0.012689     beta(Y;Y,Z) = beta(Y,Z,Y)
@ B-freq = 0.019034  C-freq = 0.012689     beta(Z;Y,Z) = beta(Z,Z,Y)
@ B-freq = 0.025378  C-freq = 0.012689     beta(X;Y,Z) = beta(X,Z,Y)
@ B-freq = 0.025378  C-freq = 0.012689     beta(Y;Y,Z) = beta(Y,Z,Y)
@ B-freq = 0.025378  C-freq = 0.012689     beta(Z;Y,Z) = beta(Z,Z,Y)
@ B-freq = 0.000000  C-freq = 0.012689     beta(X;Z,Z) = beta(X,Z,Z)
@ B-freq = 0.000000  C-freq = 0.012689     beta(Y;Z,Z) = beta(Y,Z,Z)
@ B-freq = 0.000000  C-freq = 0.012689     beta(Z;Z,Z) = beta(Z,Z,Z)
@ B-freq = 0.006345  C-freq = 0.012689     beta(X;Z,Z) = beta(X,Z,Z)
@ B-freq = 0.006345  C-freq = 0.012689     beta(Y;Z,Z) = beta(Y,Z,Z)
@ B-freq = 0.006345  C-freq = 0.012689     beta(Z;Z,Z) = beta(Z,Z,Z)
@ B-freq = 0.012689  C-freq = 0.012689     beta(X;Z,Z) =     22.65875211
@ B-freq = 0.012689  C-freq = 0.012689     beta(Y;Z,Z) =     43.42538757
@ B-freq = 0.012689  C-freq = 0.012689     beta(Z;Z,Z) =     -0.00000000
@ B-freq = 0.019034  C-freq = 0.012689     beta(X;Z,Z) =     22.82467140
@ B-freq = 0.019034  C-freq = 0.012689     beta(Y;Z,Z) =     43.77555218
@ B-freq = 0.019034  C-freq = 0.012689     beta(Z;Z,Z) =     -0.00000000
@ B-freq = 0.025378  C-freq = 0.012689     beta(X;Z,Z) =     23.03342351
@ B-freq = 0.025378  C-freq = 0.012689     beta(Y;Z,Z) =     44.21500152
@ B-freq = 0.025378  C-freq = 0.012689     beta(Z;Z,Z) =     -0.00000000
@ B-freq = 0.000000  C-freq = 0.019034     beta(X;X,Z) = beta(X,Z,X)
@ B-freq = 0.000000  C-freq = 0.019034     beta(Y;X,Z) = beta(Y,Z,X)
@ B-freq = 0.000000  C-freq = 0.019034     beta(Z;X,Z) = beta(Z,Z,X)
@ B-freq = 0.006345  C-freq = 0.019034     beta(X;X,Z) = beta(X,Z,X)
@ B-freq = 0.006345  C-freq = 0.019034     beta(Y;X,Z) = beta(Y,Z,X)
@ B-freq = 0.006345  C-freq = 0.019034     beta(Z;X,Z) = beta(Z,Z,X)
@ B-freq = 0.012689  C-freq = 0.019034     beta(X;X,Z) = beta(X,Z,X)
@ B-freq = 0.012689  C-freq = 0.019034     beta(Y;X,Z) = beta(Y,Z,X)
@ B-freq = 0.012689  C-freq = 0.019034     beta(Z;X,Z) = beta(Z,Z,X)
@ B-freq = 0.019034  C-freq = 0.019034     beta(X;X,Z) = beta(X,Z,X)
@ B-freq = 0.019034  C-freq = 0.019034     beta(Y;X,Z) = beta(Y,Z,X)
@ B-freq = 0.019034  C-freq = 0.019034     beta(Z;X,Z) = beta(Z,Z,X)
@ B-freq = 0.025378  C-freq = 0.019034     beta(X;X,Z) = beta(X,Z,X)
@ B-freq = 0.025378  C-freq = 0.019034     beta(Y;X,Z) = beta(Y,Z,X)
@ B-freq = 0.025378  C-freq = 0.019034     beta(Z;X,Z) = beta(Z,Z,X)
@ B-freq = 0.000000  C-freq = 0.019034     beta(X;Y,Z) = beta(X,Z,Y)
@ B-freq = 0.000000  C-freq = 0.019034     beta(Y;Y,Z) = beta(Y,Z,Y)
@ B-freq = 0.000000  C-freq = 0.019034     beta(Z;Y,Z) = beta(Z,Z,Y)
@ B-freq = 0.006345  C-freq = 0.019034     beta(X;Y,Z) = beta(X,Z,Y)
@ B-freq = 0.006345  C-freq = 0.019034     beta(Y;Y,Z) = beta(Y,Z,Y)
@ B-freq = 0.006345  C-freq = 0.019034     beta(Z;Y,Z) = beta(Z,Z,Y)
@ B-freq = 0.012689  C-freq = 0.019034     beta(X;Y,Z) = beta(X,Z,Y)
@ B-freq = 0.012689  C-freq = 0.019034     beta(Y;Y,Z) = beta(Y,Z,Y)
@ B-freq = 0.012689  C-freq = 0.019034     beta(Z;Y,Z) = beta(Z,Z,Y)
@ B-freq = 0.019034  C-freq = 0.019034     beta(X;Y,Z) = beta(X,Z,Y)
@ B-freq = 0.019034  C-freq = 0.019034     beta(Y;Y,Z) = beta(Y,Z,Y)
@ B-freq = 0.019034  C-freq = 0.019034     beta(Z;Y,Z) = beta(Z,Z,Y)
@ B-freq = 0.025378  C-freq = 0.019034     beta(X;Y,Z) = beta(X,Z,Y)
@ B-freq = 0.025378  C-freq = 0.019034     beta(Y;Y,Z) = beta(Y,Z,Y)
@ B-freq = 0.025378  C-freq = 0.019034     beta(Z;Y,Z) = beta(Z,Z,Y)
@ B-freq = 0.000000  C-freq = 0.019034     beta(X;Z,Z) = beta(X,Z,Z)
@ B-freq = 0.000000  C-freq = 0.019034     beta(Y;Z,Z) = beta(Y,Z,Z)
@ B-freq = 0.000000  C-freq = 0.019034     beta(Z;Z,Z) = beta(Z,Z,Z)
@ B-freq = 0.006345  C-freq = 0.019034     beta(X;Z,Z) = beta(X,Z,Z)
@ B-freq = 0.006345  C-freq = 0.019034     beta(Y;Z,Z) = beta(Y,Z,Z)
@ B-freq = 0.006345  C-freq = 0.019034     beta(Z;Z,Z) = beta(Z,Z,Z)
@ B-freq = 0.012689  C-freq = 0.019034     beta(X;Z,Z) = beta(X,Z,Z)
@ B-freq = 0.012689  C-freq = 0.019034     beta(Y;Z,Z) = beta(Y,Z,Z)
@ B-freq = 0.012689  C-freq = 0.019034     beta(Z;Z,Z) = beta(Z,Z,Z)
@ B-freq = 0.019034  C-freq = 0.019034     beta(X;Z,Z) =     23.02643015
@ B-freq = 0.019034  C-freq = 0.019034     beta(Y;Z,Z) =     44.20342552
@ B-freq = 0.019034  C-freq = 0.019034     beta(Z;Z,Z) =     -0.00000000
@ B-freq = 0.025378  C-freq = 0.019034     beta(X;Z,Z) =     23.27294258
@ B-freq = 0.025378  C-freq = 0.019034     beta(Y;Z,Z) =     44.72498502
@ B-freq = 0.025378  C-freq = 0.019034     beta(Z;Z,Z) =     -0.00000000
@ B-freq = 0.000000  C-freq = 0.025378     beta(X;X,Z) = beta(X,Z,X)
@ B-freq = 0.000000  C-freq = 0.025378     beta(Y;X,Z) = beta(Y,Z,X)
@ B-freq = 0.000000  C-freq = 0.025378     beta(Z;X,Z) = beta(Z,Z,X)
@ B-freq = 0.006345  C-freq = 0.025378     beta(X;X,Z) = beta(X,Z,X)
@ B-freq = 0.006345  C-freq = 0.025378     beta(Y;X,Z) = beta(Y,Z,X)
@ B-freq = 0.006345  C-freq = 0.025378     beta(Z;X,Z) = beta(Z,Z,X)
@ B-freq = 0.012689  C-freq = 0.025378     beta(X;X,Z) = beta(X,Z,X)
@ B-freq = 0.012689  C-freq = 0.025378     beta(Y;X,Z) = beta(Y,Z,X)
@ B-freq = 0.012689  C-freq = 0.025378     beta(Z;X,Z) = beta(Z,Z,X)
@ B-freq = 0.019034  C-freq = 0.025378     beta(X;X,Z) = beta(X,Z,X)
@ B-freq = 0.019034  C-freq = 0.025378     beta(Y;X,Z) = beta(Y,Z,X)
@ B-freq = 0.019034  C-freq = 0.025378     beta(Z;X,Z) = beta(Z,Z,X)
@ B-freq = 0.025378  C-freq = 0.025378     beta(X;X,Z) = beta(X,Z,X)
@ B-freq = 0.025378  C-freq = 0.025378     beta(Y;X,Z) = beta(Y,Z,X)
@ B-freq = 0.025378  C-freq = 0.025378     beta(Z;X,Z) = beta(Z,Z,X)
@ B-freq = 0.000000  C-freq = 0.025378     beta(X;Y,Z) = beta(X,Z,Y)
@ B-freq = 0.000000  C-freq = 0.025378     beta(Y;Y,Z) = beta(Y,Z,Y)
@ B-freq = 0.000000  C-freq = 0.025378     beta(Z;Y,Z) = beta(Z,Z,Y)
@ B-freq = 0.006345  C-freq = 0.025378     beta(X;Y,Z) = beta(X,Z,Y)
@ B-freq = 0.006345  C-freq = 0.025378     beta(Y;Y,Z) = beta(Y,Z,Y)
@ B-freq = 0.006345  C-freq = 0.025378     beta(Z;Y,Z) = beta(Z,Z,Y)
@ B-freq = 0.012689  C-freq = 0.025378     beta(X;Y,Z) = beta(X,Z,Y)
@ B-freq = 0.012689  C-freq = 0.025378     beta(Y;Y,Z) = beta(Y,Z,Y)
@ B-freq = 0.012689  C-freq = 0.025378     beta(Z;Y,Z) = beta(Z,Z,Y)
@ B-freq = 0.019034  C-freq = 0.025378     beta(X;Y,Z) = beta(X,Z,Y)
@ B-freq = 0.019034  C-freq = 0.025378     beta(Y;Y,Z) = beta(Y,Z,Y)
@ B-freq = 0.019034  C-freq = 0.025378     beta(Z;Y,Z) = beta(Z,Z,Y)
@ B-freq = 0.025378  C-freq = 0.025378     beta(X;Y,Z) = beta(X,Z,Y)
@ B-freq = 0.025378  C-freq = 0.025378     beta(Y;Y,Z) = beta(Y,Z,Y)
@ B-freq = 0.025378  C-freq = 0.025378     beta(Z;Y,Z) = beta(Z,Z,Y)
@ B-freq = 0.000000  C-freq = 0.025378     beta(X;Z,Z) = beta(X,Z,Z)
@ B-freq = 0.000000  C-freq = 0.025378     beta(Y;Z,Z) = beta(Y,Z,Z)
@ B-freq = 0.000000  C-freq = 0.025378     beta(Z;Z,Z) = beta(Z,Z,Z)
@ B-freq = 0.006345  C-freq = 0.025378     beta(X;Z,Z) = beta(X,Z,Z)
@ B-freq = 0.006345  C-freq = 0.025378     beta(Y;Z,Z) = beta(Y,Z,Z)
@ B-freq = 0.006345  C-freq = 0.025378     beta(Z;Z,Z) = beta(Z,Z,Z)
@ B-freq = 0.012689  C-freq = 0.025378     beta(X;Z,Z) = beta(X,Z,Z)
@ B-freq = 0.012689  C-freq = 0.025378     beta(Y;Z,Z) = beta(Y,Z,Z)
@ B-freq = 0.012689  C-freq = 0.025378     beta(Z;Z,Z) = beta(Z,Z,Z)
@ B-freq = 0.019034  C-freq = 0.025378     beta(X;Z,Z) = beta(X,Z,Z)
@ B-freq = 0.019034  C-freq = 0.025378     beta(Y;Z,Z) = beta(Y,Z,Z)
@ B-freq = 0.019034  C-freq = 0.025378     beta(Z;Z,Z) = beta(Z,Z,Z)
@ B-freq = 0.025378  C-freq = 0.025378     beta(X;Z,Z) =     23.55957723
@ B-freq = 0.025378  C-freq = 0.025378     beta(Y;Z,Z) =     45.33408786
@ B-freq = 0.025378  C-freq = 0.025378     beta(Z;Z,Z) =     -0.00000000

  Total CPU  time used in RESPONSE:  3 minutes 37 seconds
  Total wall time used in RESPONSE:  3 minutes 38 seconds


                   .-------------------------------------------.
                   | End of Dynamic Property Section (RESPONS) |
                   `-------------------------------------------'

  Total CPU  time used in DALTON:  3 minutes 55 seconds
  Total wall time used in DALTON:  3 minutes 56 seconds

 
     Date and time (Linux)  : Sat Jul 27 17:46:38 2024
     Host name              : dn006                                   
