

     ************************************************************************
     *************** Dalton - An Electronic Structure Program ***************
     ************************************************************************

    This is output from DALTON release Dalton2020.0 (2020)
         ( Web site: http://daltonprogram.org )

   ----------------------------------------------------------------------------

    NOTE:
     
    Dalton is an experimental code for the evaluation of molecular
    properties using (MC)SCF, DFT, CI, and CC wave functions.
    The authors accept no responsibility for the performance of
    the code or for the correctness of the results.
     
    The code (in whole or part) is provided under a licence and
    is not to be reproduced for further distribution without
    the written permission of the authors or their representatives.
     
    See the home page "http://daltonprogram.org" for further information.
     
    If results obtained with this code are published,
    the appropriate citations would be both of:
     
       K. Aidas, C. Angeli, K. L. Bak, V. Bakken, R. Bast,
       L. Boman, O. Christiansen, R. Cimiraglia, S. Coriani,
       P. Dahle, E. K. Dalskov, U. Ekstroem,
       T. Enevoldsen, J. J. Eriksen, P. Ettenhuber, B. Fernandez,
       L. Ferrighi, H. Fliegl, L. Frediani, K. Hald, A. Halkier,
       C. Haettig, H. Heiberg, T. Helgaker, A. C. Hennum,
       H. Hettema, E. Hjertenaes, S. Hoest, I.-M. Hoeyvik,
       M. F. Iozzi, B. Jansik, H. J. Aa. Jensen, D. Jonsson,
       P. Joergensen, J. Kauczor, S. Kirpekar,
       T. Kjaergaard, W. Klopper, S. Knecht, R. Kobayashi, H. Koch,
       J. Kongsted, A. Krapp, K. Kristensen, A. Ligabue,
       O. B. Lutnaes, J. I. Melo, K. V. Mikkelsen, R. H. Myhre,
       C. Neiss, C. B. Nielsen, P. Norman, J. Olsen,
       J. M. H. Olsen, A. Osted, M. J. Packer, F. Pawlowski,
       T. B. Pedersen, P. F. Provasi, S. Reine, Z. Rinkevicius,
       T. A. Ruden, K. Ruud, V. Rybkin, P. Salek, C. C. M. Samson,
       A. Sanchez de Meras, T. Saue, S. P. A. Sauer,
       B. Schimmelpfennig, K. Sneskov, A. H. Steindal,
       K. O. Sylvester-Hvid, P. R. Taylor, A. M. Teale,
       E. I. Tellgren, D. P. Tew, A. J. Thorvaldsen, L. Thoegersen,
       O. Vahtras, M. A. Watson, D. J. D. Wilson, M. Ziolkowski
       and H. Agren,
       "The Dalton quantum chemistry program system",
       WIREs Comput. Mol. Sci. 2014, 4:269–284 (doi: 10.1002/wcms.1172)
     
    and
     
       Dalton, a molecular electronic structure program,
       Release Dalton2020.0 (2020), see http://daltonprogram.org
   ----------------------------------------------------------------------------

    Authors in alphabetical order (Major contribution(s) in parenthesis):

  Kestutis Aidas,           Vilnius University,           Lithuania   (QM/MM)
  Celestino Angeli,         University of Ferrara,        Italy       (NEVPT2)
  Keld L. Bak,              UNI-C,                        Denmark     (AOSOPPA, non-adiabatic coupling, magnetic properties)
  Vebjoern Bakken,          University of Oslo,           Norway      (DALTON; geometry optimizer, symmetry detection)
  Radovan Bast,             UiT The Arctic U. of Norway,  Norway      (DALTON installation and execution frameworks)
  Pablo Baudin,             University of Valencia,       Spain       (Cholesky excitation energies)
  Linus Boman,              NTNU,                         Norway      (Cholesky decomposition and subsystems)
  Bruno N. Cabral Tenorio,  Technical Univ. of Denmark,   Denmark     (Lanczos-based CC methods)
  Ove Christiansen,         Aarhus University,            Denmark     (CC module)
  Renzo Cimiraglia,         University of Ferrara,        Italy       (NEVPT2)
  Sonia Coriani,            Technical Univ. of Denmark,   Denmark     (CC and RESPONS modules)
  Janusz Cukras,            University of Warsaw,         Poland      (MChD in RESPONS)
  Paal Dahle,               University of Oslo,           Norway      (Parallelization)
  Erik K. Dalskov,          UNI-C,                        Denmark     (SOPPA)
  Thomas Enevoldsen,        Univ. of Southern Denmark,    Denmark     (SOPPA)
  Janus J. Eriksen,         Aarhus University,            Denmark     (Polarizable embedding, TDA)
  Rasmus Faber,             Technical Univ. of Denmark,   Denmark     (Vib.avg. NMR w. SOPPA, parallel AO-SOPPA, CVS-CC and EOMCC)
  Tobias Fahleson,          KTH Stockholm,                Sweden      (Damped cubic response)
  Berta Fernandez,          U. of Santiago de Compostela, Spain       (Doublet spin, ESR in RESPONS)
  Lara Ferrighi,            Aarhus University,            Denmark     (PCM Cubic response)
  Heike Fliegl,             University of Oslo,           Norway      (CCSD(R12))
  Luca Frediani,            UiT The Arctic U. of Norway,  Norway      (PCM)
  Emmanuel Fromager,        Univ. Strasbourg,             France      (MC-srDFT)
  Bin Gao,                  UiT The Arctic U. of Norway,  Norway      (Gen1Int library)
  Andre S. P. Gomes,        CNRS/Universite de Lille,     France      (Frozen density embedding)
  Christof Haettig,         Ruhr-University Bochum,       Germany     (CC module)
  Kasper Hald,              Aarhus University,            Denmark     (CC module)
  Asger Halkier,            Aarhus University,            Denmark     (CC module)
  Frederik Beyer Hansen,    University of Copenhagen,     Denmark     (Parallel AO-SOPPA)
  Erik D. Hedegaard,        Univ. of Southern Denmark,    Denmark     (Polarizable embedding, QM/MM, and MC-srDFT)
  Hanne Heiberg,            University of Oslo,           Norway      (Geometry analysis, selected one-electron integrals)
  Trygve Helgaker,          University of Oslo,           Norway      (DALTON; ABACUS, ERI, DFT modules, London, and much more)
  Alf Christian Hennum,     University of Oslo,           Norway      (Parity violation)
  Hinne Hettema,            University of Auckland,       New Zealand (Quadratic response in RESPONS; SIRIUS supersymmetry)
  Eirik Hjertenaes,         NTNU,                         Norway      (Cholesky decomposition)
  Pi A. B. Haase,           University of Copenhagen,     Denmark     (Triplet AO-SOPPA)
  Maria Francesca Iozzi,    University of Oslo,           Norway      (RPA)
  Christoph Jacob           TU Braunschweig               Germany     (Frozen density embedding)
  Brano Jansik              Technical Univ. of Ostrava    Czech Rep.  (DFT cubic response)
  Hans Joergen Aa. Jensen,  Univ. of Southern Denmark,    Denmark     (DALTON; SIRIUS, RESPONS, ABACUS, MC-srDFT, and much more)
  Dan Jonsson,              UiT The Arctic U. of Norway,  Norway      (Cubic response in RESPONS module)
  Poul Joergensen,          Aarhus University,            Denmark     (RESPONS, ABACUS, and CC modules)
  Maciej Kaminski,          University of Warsaw,         Poland      (CPPh in RESPONS)
  Joanna Kauczor,           Linkoeping University,        Sweden      (Complex polarization propagator (CPP) module)
  Sheela Kirpekar,          Univ. of Southern Denmark,    Denmark     (Mass-velocity & Darwin integrals)
  Erik Kjellgren,           Univ. of Southern Denmark,    Denmark     (MC-srDFT)
  Wim Klopper,              KIT Karlsruhe,                Germany     (R12 code in CC, SIRIUS, and ABACUS modules)
  Stefan Knecht,            ETH Zurich,                   Switzerland (Parallel CI and MCSCF, MC-srDFT)
  Rika Kobayashi,           Australian National Univ.,    Australia   (DIIS in CC, London in MCSCF)
  Henrik Koch,              NTNU,                         Norway      (CC module, Cholesky decomposition)
  Jacob Kongsted,           Univ. of Southern Denmark,    Denmark     (Polarizable embedding, polarizable density embedding, QM/MM)
  Andrea Ligabue,           University of Modena,         Italy       (CTOCD, AOSOPPA)
  Nanna H. List             Univ. of Southern Denmark,    Denmark     (Polarizable embedding)
  Ola B. Lutnaes,           University of Oslo,           Norway      (DFT Hessian)
  Juan I. Melo,             University of Buenos Aires,   Argentina   (LRESC, Relativistic Effects on NMR Shieldings)
  Kurt V. Mikkelsen,        University of Copenhagen,     Denmark     (MC-SCRF and QM/MM)
  Rolf H. Myhre,            NTNU,                         Norway      (Subsystems and CC3)
  Christian Neiss,          Univ. Erlangen-Nuernberg,     Germany     (CCSD(R12))
  Christian B. Nielsen,     University of Copenhagen,     Denmark     (QM/MM)
  Patrick Norman,           KTH Stockholm,                Sweden      (Cubic response and complex frequency response in RESPONS)
  Jeppe Olsen,              Aarhus University,            Denmark     (SIRIUS CI/density modules)
  Jogvan Magnus H. Olsen,   Aarhus University,            Denmark     (Polarizable embedding and polarizable density embedding)
  Anders Osted,             Copenhagen University,        Denmark     (QM/MM)
  Martin J. Packer,         University of Sheffield,      UK          (SOPPA)
  Filip Pawlowski,          Kazimierz Wielki University,  Poland      (CC3)
  Morten N. Pedersen,       Univ. of Southern Denmark,    Denmark     (Polarizable embedding)
  Thomas B. Pedersen,       University of Oslo,           Norway      (Cholesky decomposition)
  Patricio F. Provasi,      University of Northeastern,   Argentina   (Analysis of coupling constants in localized orbitals)
  Peter Reinholdt,          Univ. of Southern Denmark,    Denmark     (Polarizable embedding and polarizable density embedding)
  Zilvinas Rinkevicius,     KTH Stockholm,                Sweden      (open-shell DFT, ESR)
  Elias Rudberg,            KTH Stockholm,                Sweden      (DFT grid and basis info)
  Torgeir A. Ruden,         University of Oslo,           Norway      (Numerical derivatives in ABACUS)
  Kenneth Ruud,             UiT The Arctic U. of Norway,  Norway      (DALTON; ABACUS magnetic properties and much more)
  Pawel Salek,              KTH Stockholm,                Sweden      (DALTON; DFT code)
  Claire C. M. Samson       University of Karlsruhe       Germany     (Boys localization, r12 integrals in ERI)
  Alfredo Sanchez de Meras, University of Valencia,       Spain       (CC module, Cholesky decomposition)
  Trond Saue,               Paul Sabatier University,     France      (direct Fock matrix construction)
  Stephan P. A. Sauer,      University of Copenhagen,     Denmark     (SOPPA(CCSD), SOPPA prop., AOSOPPA, vibrational g-factors)
  Bernd Schimmelpfennig,    Forschungszentrum Karlsruhe,  Germany     (AMFI module)
  Anna K. Schnack-Petersen, University of Copenhagen,     Denmark     (RPA(D) and HRPA(D) properties in AOSOPPA)
  Kristian Sneskov,         Aarhus University,            Denmark     (Polarizable embedding, QM/MM)
  Arnfinn H. Steindal,      UiT The Arctic U. of Norway,  Norway      (parallel QM/MM, polarizable embedding)
  Casper Steinmann,         Aalborg University,           Denmark     (QFIT, polarizable embedding)
  K. O. Sylvester-Hvid,     University of Copenhagen,     Denmark     (MC-SCRF)
  Peter R. Taylor,          VLSCI/Univ. of Melbourne,     Australia   (Symmetry handling ABACUS, integral transformation)
  Andrew M. Teale,          University of Nottingham,     England     (DFT-AC, DFT-D)
  David P. Tew,             University of Bristol,        England     (CCSD(R12))
  Julien Toulouse,          Sorbonne Univ.,               France      (MC-srDFT)
  Olav Vahtras,             KTH Stockholm,                Sweden      (Triplet response, spin-orbit, ESR, TDDFT, open-shell DFT)
  Lucas Visscher,           Vrije Universiteit Amsterdam, Netherlands (Frozen density embedding)
  David J. Wilson,          La Trobe University,          Australia   (DFT Hessian and DFT magnetizabilities)
  Hans Agren,               KTH Stockholm,                Sweden      (SIRIUS module, RESPONS, MC-SCRF solvation)
 --------------------------------------------------------------------------------

     Date and time (Linux)  : Wed Sep 13 22:19:15 2023
     Host name              : sn-mem                                  

 * Work memory size             :    64000000 =  488.28 megabytes.

 * Directories for basis set searches:
   1) /gpfs/projects/rjh/adrian/august_no_symmetry/dalton/hf/NOCl/dipole
   2) /gpfs/projects/rjh/adrian/dalton/build/basis


Compilation information
-----------------------

 Who compiled             | ahurtado
 Host                     | sn-mem
 System                   | Linux-3.10.0-1160.24.1.el7.x86_64
 CMake generator          | Unix Makefiles
 Processor                | x86_64
 64-bit integers          | OFF
 MPI                      | ON
 Fortran compiler         | /gpfs/software/intel/oneAPI/2021_4/mpi/2021.4.0/bi
                          | n/mpif90
 Fortran compiler version | GNU Fortran (GCC) 11.2.0
 C compiler               | /gpfs/software/intel/oneAPI/2021_4/mpi/2021.4.0/bi
                          | n/mpicc
 C compiler version       | gcc (GCC) 11.2.0
 C++ compiler             | /gpfs/software/intel/oneAPI/2021_4/mpi/2021.4.0/bi
                          | n/mpicxx
 C++ compiler version     | unknown
 BLAS                     | /gpfs/software/intel/oneAPI/2021_4/mkl/2021.4.0/li
                          | b/intel64/libmkl_gf_lp64.so;/gpfs/software/intel/o
                          | neAPI/2021_4/mkl/2021.4.0/lib/intel64/libmkl_seque
                          | ntial.so;/gpfs/software/intel/oneAPI/2021_4/mkl/20
                          | 21.4.0/lib/intel64/libmkl_core.so;/usr/lib64/libpt
                          | hread.so;/usr/lib64/libm.so
 LAPACK                   | /gpfs/software/intel/oneAPI/2021_4/mkl/2021.4.0/li
                          | b/intel64/libmkl_lapack95_lp64.a;/gpfs/software/in
                          | tel/oneAPI/2021_4/mkl/2021.4.0/lib/intel64/libmkl_
                          | gf_lp64.so
 Static linking           | OFF
 Last Git revision        | 66052b3af5ea7225e31178bf9a8b031913c72190
 Git branch               | (HEAD detached at Dalton2020.0)
 Configuration time       | 2023-01-11 13:33:37.731835

 * MPI parallel run using 5 processes.


   Content of the .dal input file
 ----------------------------------

**DALTON INPUT
.RUN RESPONSE
.DIRECT
**WAVE FUNCTIONS
.HF
**PROPERTIES
**RESPONSE
*QUADRA
.DIPLEN
.FREQUENCIES
5
0.0 0.0063445625 0.012689125 0.0190336875 0.02537825
**END OF DALTON INPUT


   Content of the .mol file
 ----------------------------

BASIS
aug-cc-pCVTZ
blah
blah
Atomtype=3 Angstrom Charge=0 Nosymmmetry
Charge=17 Atoms=1
Cl_a -0.531200001141 -0.929799999232 0.000000000000
Charge=7 Atoms=1
N_a 0.000000000000 0.972399997674 0.000000000000
Charge=8 Atoms=1
O_a 1.128700001162 1.124999999397 0.000000000000


       *******************************************************************
       *********** Output from DALTON general input processing ***********
       *******************************************************************

 --------------------------------------------------------------------------------
   Overall default print level:    0
   Print level for DALTON.STAT:    1

    Parallel calculation using MPI
    AO-direct calculation (in sections where implemented)
    HERMIT 1- and 2-electron integral sections will be executed
    "Old" integral transformation used (limited to max 255 basis functions)
    Wave function sections will be executed (SIRIUS module)
    Dynamic molecular response properties section will be executed (RESPONSE module)
 --------------------------------------------------------------------------------


   ****************************************************************************
   *************** Output of molecule and basis set information ***************
   ****************************************************************************


    The two title cards from your ".mol" input:
    ------------------------------------------------------------------------
 1: blah                                                                    
 2: blah                                                                    
    ------------------------------------------------------------------------

  Coordinates are entered in Angstrom and converted to atomic units.
          - Conversion factor : 1 bohr = 0.52917721 A

  Atomic type no.    1
  --------------------
  Nuclear charge:  17.00000
  Number of symmetry independent centers:    1
  Number of basis sets to read;    2
  Basis set file used for this atomic type with Z =  17 :
     "/gpfs/projects/rjh/adrian/dalton/build/basis/aug-cc-pCVTZ"

  Atomic type no.    2
  --------------------
  Nuclear charge:   7.00000
  Number of symmetry independent centers:    1
  Number of basis sets to read;    2
  Basis set file used for this atomic type with Z =   7 :
     "/gpfs/projects/rjh/adrian/dalton/build/basis/aug-cc-pCVTZ"

  Atomic type no.    3
  --------------------
  Nuclear charge:   8.00000
  Number of symmetry independent centers:    1
  Number of basis sets to read;    2
  Basis set file used for this atomic type with Z =   8 :
     "/gpfs/projects/rjh/adrian/dalton/build/basis/aug-cc-pCVTZ"


                         SYMGRP: Point group information
                         -------------------------------

@    Point group: C1 


                                 Isotopic Masses
                                 ---------------

                           Cl_a       34.968853
                           N_a        14.003074
                           O_a        15.994915

                       Total mass:    64.966842 amu
                       Natural abundance:  75.308 %

 Center-of-mass coordinates (a.u.):   -0.015184   -0.026271    0.000000
 Center-of-mass coordinates (Angs):   -0.008035   -0.013902    0.000000


  Atoms and basis sets
  --------------------

  Number of atom types :    3
  Total number of atoms:    3

  Basis set used is "aug-cc-pCVTZ" from the basis set library.

  label    atoms   charge   prim   cont     basis
  ----------------------------------------------------------------------
  Cl          1   17.0000   100    75      [18s12p5d3f|8s7p5d3f]                              
  N_          1    7.0000    71    59      [13s8p4d2f|7s6p4d2f]                               
  O_          1    8.0000    71    59      [13s8p4d2f|7s6p4d2f]                               
  ----------------------------------------------------------------------
  total:      3   32.0000   242   193
  ----------------------------------------------------------------------
  Spherical harmonic basis used.

  Threshold for neglecting AO integrals:  1.00D-12


  Cartesian Coordinates (a.u.)
  ----------------------------

  Total number of coordinates:    9
  Cl_a    :     1  x  -1.0038225198    2  y  -1.7570673496    3  z   0.0000000000
  N_a     :     4  x   0.0000000000    5  y   1.8375696795    6  z   0.0000000000
  O_a     :     7  x   2.1329338795    8  y   2.1259418895    9  z   0.0000000000


   Interatomic separations (in Angstrom):
   --------------------------------------

            Cl_a        N_a         O_a   
            ------      ------      ------
 Cl_a  :    0.000000
 N_a   :    1.974978    0.000000
 O_a   :    2.641490    1.138969    0.000000


  Max    interatomic separation is    2.6415 Angstrom (    4.9917 Bohr)
  between atoms    3 and    1, "O_a   " and "Cl_a  ".

  Min YX interatomic separation is    1.1390 Angstrom (    2.1523 Bohr)


  Bond distances (Angstrom):
  --------------------------

                  atom 1     atom 2       distance
                  ------     ------       --------
  bond distance:  N_a        Cl_a         1.974978
  bond distance:  O_a        N_a          1.138969


  Bond angles (degrees):
  ----------------------

                  atom 1     atom 2     atom 3         angle
                  ------     ------     ------         -----
  bond angle:     Cl_a       N_a        O_a          113.302




 Principal moments of inertia (u*A**2) and principal axes
 --------------------------------------------------------

   IA       5.840433          0.544616    0.838686    0.000000
   IB      88.102929          0.838686   -0.544616    0.000000
   IC      93.943362          0.000000    0.000000    1.000000


 Rotational constants
 --------------------

@    The molecule is planar.

               A                   B                   C

          86531.0810           5736.2339           5379.6138 MHz
            2.886366            0.191340            0.179445 cm-1


@  Nuclear repulsion energy :   85.148419784453 Hartree


                     .---------------------------------------.
                     | Starting in Integral Section (HERMIT) |
                     `---------------------------------------'



 ***************************************************************************************
 ****************** Output from **INTEGRALS input processing (HERMIT) ******************
 ***************************************************************************************


 - Using defaults, no **INTEGRALS input found

 Default print level:        1

 Calculation of one-electron Hamiltonian integrals.

 Center of mass  (bohr):     -0.015183530523     -0.026271029737      0.000000000000
 Operator center (bohr):      0.000000000000      0.000000000000      0.000000000000
 Gauge origin    (bohr):      0.000000000000      0.000000000000      0.000000000000
 Dipole origin   (bohr):      0.000000000000      0.000000000000      0.000000000000


     ************************************************************************
     ************************** Output from HERINT **************************
     ************************************************************************



                      Nuclear contribution to dipole moments
                      --------------------------------------

                 au               Debye          C m (/(10**-30)

      x     -0.00151180        -0.00384261        -0.01281757
      y      0.00037793         0.00096060         0.00320422
      z      0.00000000         0.00000000         0.00000000


  Time used in GABGEN     is       0.31 seconds
  Total CPU  time used in HERMIT:   0.59 seconds
  Total wall time used in HERMIT:   0.60 seconds


                        .----------------------------------.
                        | End of Integral Section (HERMIT) |
                        `----------------------------------'



                   .--------------------------------------------.
                   | Starting in Wave Function Section (SIRIUS) |
                   `--------------------------------------------'


 *** Output from Huckel module :

     Using EWMO model:          T
     Using EHT  model:          F
     Number of Huckel orbitals each symmetry:   24

 EWMO - Energy Weighted Maximum Overlap - is a Huckel type method,
        which normally is better than Extended Huckel Theory.
 Reference: Linderberg and Ohrn, Propagators in Quantum Chemistry (Wiley, 1973)

 Huckel EWMO eigenvalues for symmetry :  1
         -104.883930     -20.685569     -15.673202     -10.608489      -8.072407
           -8.072214      -8.072213      -1.708026      -1.175229      -0.898477
           -0.756044      -0.739435      -0.598849      -0.506247      -0.484719
           -0.442076      -0.370251      -0.309233      -0.187242      -0.055540
           -0.055527      -0.054317      -0.054072      -0.050572

 **********************************************************************
 *SIRIUS* a direct, restricted step, second order MCSCF program       *
 **********************************************************************

 
     Date and time (Linux)  : Wed Sep 13 22:19:16 2023
     Host name              : sn-mem                                  

 Title lines from ".mol" input file:
     blah                                                                    
     blah                                                                    

 Print level on unit LUPRI =   2 is   0
 Print level on unit LUW4  =   2 is   5

@    Restricted, closed shell Hartree-Fock calculation.

@    Time-dependent Hartree-Fock calculation (random phase approximation).
 Fock matrices are calculated directly and in parallel without use of integrals on disk.

 Initial molecular orbitals are obtained according to
 ".MOSTART EWMO  " input option

     Wave function specification
     ============================
@    Wave function type        --- HF ---
@    Number of closed shell electrons          32
@    Number of electrons in active shells       0
@    Total charge of the molecule               0

@    Spin multiplicity and 2 M_S                1         0
@    Total number of symmetries                 1 (point group: C1 )
@    Reference state symmetry                   1 (irrep name : A  )

     Orbital specifications
     ======================
@    Abelian symmetry species          All |    1
@                                          |  A  
                                       --- |  ---
@    Occupied SCF orbitals              16 |   16
@    Secondary orbitals                177 |  177
@    Total number of orbitals          193 |  193
@    Number of basis functions         193 |  193

     Optimization information
     ========================
@    Number of configurations                 1
@    Number of orbital rotations           2832
     ------------------------------------------
@    Total number of variables             2833

     Maximum number of Fock   iterations      0
     Maximum number of DIIS   iterations     60
     Maximum number of QC-SCF iterations     60
     Threshold for SCF convergence     1.00D-05


 ***********************************************
 ***** DIIS acceleration of SCF iterations *****
 ***********************************************

 C1-DIIS algorithm; max error vectors =    8

 Iter      Total energy        Error norm    Delta(E)  DIIS dim.
 -----------------------------------------------------------------------------
   1  Screening settings (-IFTHRS, JTDIIS, DIFDEN, times)   -8    1    T  3.04D+00  3.08D+00
@  1    -588.363831462        3.06728D+00   -5.88D+02    1
      Virial theorem: -V/T =      2.000439
@    MULPOP   Cl_a   -0.16; N_a     0.54; O_a    -0.38; 
   1  Level shift: doubly occupied orbital energies shifted by -2.00D-01
 -----------------------------------------------------------------------------
   2  Screening settings (-IFTHRS, JTDIIS, DIFDEN, times)   -8    2    T  3.06D+00  3.07D+00
@  2    -588.703376379        1.15039D+00   -3.40D-01    2
      Virial theorem: -V/T =      2.000223
@    MULPOP   Cl_a    0.03; N_a     0.01; O_a    -0.05; 
   2  Level shift: doubly occupied orbital energies shifted by -1.00D-01
 -----------------------------------------------------------------------------
   3  Screening settings (-IFTHRS, JTDIIS, DIFDEN, times)   -8    3    T  3.08D+00  3.10D+00
@  3    -588.759802467        4.14623D-01   -5.64D-02    3
      Virial theorem: -V/T =      2.000158
@    MULPOP   Cl_a   -0.10; N_a     0.42; O_a    -0.32; 
   3  Level shift: doubly occupied orbital energies shifted by -5.00D-02
 -----------------------------------------------------------------------------
   4  Screening settings (-IFTHRS, JTDIIS, DIFDEN, times)   -8    4    T  3.04D+00  3.05D+00
@  4    -588.768952868        1.11579D-01   -9.15D-03    4
      Virial theorem: -V/T =      2.000752
@    MULPOP   Cl_a   -0.11; N_a     0.33; O_a    -0.23; 
   4  Level shift: doubly occupied orbital energies shifted by -2.50D-02
 -----------------------------------------------------------------------------
   5  Screening settings (-IFTHRS, JTDIIS, DIFDEN, times)  -12    5    F  3.11D+00  3.11D+00
@  5    -588.770175960        4.06929D-02   -1.22D-03    5
      Virial theorem: -V/T =      2.000545
@    MULPOP   Cl_a   -0.11; N_a     0.35; O_a    -0.24; 
   5  Level shift: doubly occupied orbital energies shifted by -1.25D-02
 -----------------------------------------------------------------------------
   6  Screening settings (-IFTHRS, JTDIIS, DIFDEN, times)  -12    6    T  3.01D+00  3.01D+00
@  6    -588.770404550        1.73235D-02   -2.29D-04    6
      Virial theorem: -V/T =      2.000542
@    MULPOP   Cl_a   -0.12; N_a     0.36; O_a    -0.24; 
 -----------------------------------------------------------------------------
   7  Screening settings (-IFTHRS, JTDIIS, DIFDEN, times)  -12    7    T  3.22D+00  3.22D+00
@  7    -588.770467611        6.70811D-03   -6.31D-05    7
      Virial theorem: -V/T =      2.000569
@    MULPOP   Cl_a   -0.12; N_a     0.36; O_a    -0.24; 
 -----------------------------------------------------------------------------
   8  Screening settings (-IFTHRS, JTDIIS, DIFDEN, times)  -12    8    T  3.08D+00  3.10D+00
@  8    -588.770479566        2.83918D-03   -1.20D-05    8
      Virial theorem: -V/T =      2.000555
@    MULPOP   Cl_a   -0.12; N_a     0.36; O_a    -0.24; 
 -----------------------------------------------------------------------------
   9  Screening settings (-IFTHRS, JTDIIS, DIFDEN, times)  -12    9    T  3.01D+00  3.06D+00
@  9    -588.770481801        1.09527D-03   -2.24D-06    8
      Virial theorem: -V/T =      2.000555
@    MULPOP   Cl_a   -0.12; N_a     0.36; O_a    -0.24; 
 -----------------------------------------------------------------------------
  10  Screening settings (-IFTHRS, JTDIIS, DIFDEN, times)  -12   10    T  3.12D+00  3.12D+00
@ 10    -588.770482156        3.54211D-04   -3.54D-07    8
      Virial theorem: -V/T =      2.000555
@    MULPOP   Cl_a   -0.12; N_a     0.36; O_a    -0.24; 
 -----------------------------------------------------------------------------
  11  Screening settings (-IFTHRS, JTDIIS, DIFDEN, times)  -12   11    T  3.14D+00  3.15D+00
@ 11    -588.770482194        1.55665D-04   -3.81D-08    8
      Virial theorem: -V/T =      2.000555
@    MULPOP   Cl_a   -0.12; N_a     0.36; O_a    -0.24; 
 -----------------------------------------------------------------------------
  12  Screening settings (-IFTHRS, JTDIIS, DIFDEN, times)  -12   12    T  3.09D+00  3.11D+00
@ 12    -588.770482200        5.16732D-05   -6.29D-09    8
      Virial theorem: -V/T =      2.000555
@    MULPOP   Cl_a   -0.12; N_a     0.36; O_a    -0.24; 
 -----------------------------------------------------------------------------
  13  Screening settings (-IFTHRS, JTDIIS, DIFDEN, times)  -12   13    T  3.02D+00  3.03D+00
@ 13    -588.770482200        2.65960D-05   -3.07D-10    8
      Virial theorem: -V/T =      2.000555
@    MULPOP   Cl_a   -0.12; N_a     0.36; O_a    -0.24; 
 -----------------------------------------------------------------------------
  14  Screening settings (-IFTHRS, JTDIIS, DIFDEN, times)  -12   14    T  3.02D+00  3.03D+00
@ 14    -588.770482201        7.84008D-06   -7.58D-11    8

@ *** DIIS converged in  14 iterations !
@     Converged SCF energy, gradient:   -588.770482200533    7.84D-06
    - total time used in SIRFCK :              0.00 seconds


 *** SCF orbital energy analysis ***

 Only the 20 lowest virtual orbital energies printed in each symmetry.

 Number of electrons :   32
 Orbital occupations :   16

 Sym       Hartree-Fock orbital energies

1 A    -104.83591069   -20.75721371   -15.85437542   -10.55956446    -8.02562021
         -8.02425292    -8.02419018    -1.68311532    -1.10560473    -0.96926581
         -0.77232233    -0.76407995    -0.72605563    -0.45914842    -0.45876884
         -0.43150011     0.03174841     0.04689379     0.07580826     0.09794546
          0.10939605     0.11560144     0.14079680     0.14798071     0.15820432
          0.18632763     0.19107676     0.22025727     0.26370793     0.30371521
          0.36150842     0.36700537     0.39664620     0.42627026     0.48281825
          0.49626112

    E(LUMO) :     0.03174841 au (symmetry 1)
  - E(HOMO) :    -0.43150011 au (symmetry 1)
  ------------------------------------------
    gap     :     0.46324852 au

 --- Writing SIRIFC interface file

 CPU and wall time for SCF :      44.074      44.269


                       .-----------------------------------.
                       | --- Final results from SIRIUS --- |
                       `-----------------------------------'


@    Spin multiplicity:           1
@    Spatial symmetry:            1 ( irrep  A   in C1  )
@    Total charge of molecule:    0

@    Final HF energy:            -588.770482200533                 
@    Nuclear repulsion:            85.148419784453
@    Electronic energy:          -673.918901984986

@    Final gradient norm:           0.000007840076

 
     Date and time (Linux)  : Wed Sep 13 22:20:00 2023
     Host name              : sn-mem                                  

File label for MO orbitals:  13Sep23   FOCKDIIS

 (Only coefficients > 0.0100 are printed.)

 Molecular orbitals for symmetry species 1  (A  )
 ------------------------------------------------

    Orbital         7        8        9       10       11       12       13
   3 Cl_a:1s    -0.0002  -0.0354  -0.8050   0.4689  -0.1417   0.2588   0.0000
   4 Cl_a:1s     0.0001   0.0036   0.0092   0.0040  -0.0069   0.0102   0.0000
   5 Cl_a:1s     0.0002   0.0035   0.0180   0.0240  -0.0194   0.0632   0.0000
   8 Cl_a:1s    -0.0005  -0.0031   0.0178   0.0034  -0.0362   0.0390   0.0000
   9 Cl_a:2px    0.9682  -0.0002   0.0006   0.0004   0.0000   0.0011   0.0000
  10 Cl_a:2py   -0.2511  -0.0002   0.0013   0.0014   0.0021   0.0037  -0.0000
  12 Cl_a:2px   -0.0027  -0.0113  -0.0222  -0.0131   0.1030  -0.0297   0.0000
  13 Cl_a:2py    0.0006  -0.0234  -0.0885  -0.0829   0.1205  -0.2440  -0.0000
  14 Cl_a:2pz   -0.0000  -0.0000  -0.0000  -0.0000   0.0000   0.0000   0.0958
  18 Cl_a:2px    0.0011   0.0036   0.0055   0.0054  -0.0157   0.0048  -0.0000
  19 Cl_a:2py   -0.0000   0.0061   0.0307   0.0227  -0.0306   0.0633   0.0000
  20 Cl_a:2pz    0.0000  -0.0000   0.0000   0.0000  -0.0000  -0.0000  -0.0152
  44 Cl_a:3d2+   0.0002   0.0015   0.0064   0.0051  -0.0030   0.0126  -0.0000
  45 Cl_a:3d2-  -0.0005  -0.0036  -0.0056  -0.0021   0.0101  -0.0048  -0.0000
  49 Cl_a:3d2+  -0.0003   0.0032   0.0101   0.0063  -0.0075   0.0155  -0.0000
  76 N_a :1s    -0.0002   0.0299  -0.0040  -0.0038  -0.0055  -0.0166  -0.0000
  77 N_a :1s    -0.0010  -0.4462  -0.3702  -0.6237  -0.1373  -0.3838  -0.0000
  78 N_a :1s     0.0003  -0.0224   0.0046  -0.0039   0.0016   0.0130  -0.0000
  79 N_a :1s     0.0026   0.1531  -0.0207   0.0025  -0.0525  -0.1522   0.0000
  80 N_a :1s    -0.0001   0.0102  -0.0019  -0.0004  -0.0019  -0.0065   0.0000
  82 N_a :1s     0.0026   0.0150  -0.0333   0.0043   0.0211  -0.0587  -0.0000
  83 N_a :2px   -0.0000  -0.3007   0.1489   0.0344   0.2821   0.6380   0.0000
  84 N_a :2py   -0.0000  -0.0306   0.1367  -0.0818  -0.4469   0.1517  -0.0000
  85 N_a :2pz   -0.0000   0.0000   0.0000  -0.0000  -0.0000  -0.0000   0.5554
  86 N_a :2px   -0.0002   0.0454  -0.0141  -0.0042  -0.0192  -0.0478  -0.0000
  89 N_a :2px    0.0020   0.1094  -0.0424  -0.0172  -0.0606  -0.1089   0.0000
  90 N_a :2py    0.0005   0.0111  -0.0158   0.0139   0.0798  -0.0172   0.0000
  91 N_a :2pz   -0.0000   0.0000  -0.0000   0.0000  -0.0000  -0.0000  -0.0733
  99 N_a :2py   -0.0006  -0.0023   0.0049  -0.0057  -0.0121   0.0053  -0.0000
 106 N_a :3d2-   0.0000  -0.0028   0.0012  -0.0016  -0.0158   0.0053   0.0000
 109 N_a :3d1+   0.0000  -0.0000  -0.0000  -0.0000   0.0000   0.0000   0.0198
 110 N_a :3d2+   0.0000  -0.0149   0.0048  -0.0034   0.0063   0.0145  -0.0000
 111 N_a :3d2-  -0.0001  -0.0024  -0.0040  -0.0018  -0.0289   0.0031  -0.0000
 114 N_a :3d1+  -0.0000   0.0000   0.0000   0.0000  -0.0000  -0.0000   0.0379
 115 N_a :3d2+  -0.0002  -0.0168   0.0153  -0.0047   0.0025   0.0189  -0.0000
 116 N_a :3d2-  -0.0001   0.0015  -0.0089   0.0025   0.0187  -0.0168  -0.0000
 120 N_a :3d2+   0.0002   0.0017   0.0048  -0.0088  -0.0091   0.0112   0.0000
 135 O_a :1s     0.0002   0.0151   0.0014   0.0069  -0.0001  -0.0039  -0.0000
 136 O_a :1s     0.0010  -0.6968   0.3062   0.5420  -0.0470  -0.1530   0.0000
 138 O_a :1s    -0.0027   0.0231   0.0474   0.1128   0.0018  -0.0398  -0.0000
 141 O_a :1s    -0.0027  -0.0172   0.0218   0.0162   0.0032   0.0173   0.0000
 142 O_a :2px   -0.0000   0.2469   0.0872   0.4500  -0.0575  -0.5868  -0.0000
 143 O_a :2py    0.0001   0.0346   0.0707   0.0086  -0.7346   0.1028  -0.0000
 144 O_a :2pz   -0.0000   0.0000  -0.0000  -0.0000  -0.0000  -0.0000   0.6846
 145 O_a :2px   -0.0001   0.0018  -0.0066  -0.0155  -0.0018   0.0048   0.0000
 147 O_a :2pz    0.0000  -0.0000   0.0000   0.0000   0.0000   0.0000   0.0114
 148 O_a :2px    0.0010  -0.0219  -0.0292  -0.0723  -0.0027   0.0239   0.0000
 149 O_a :2py    0.0000  -0.0045  -0.0037  -0.0057   0.0067   0.0108   0.0000
 165 O_a :3d2-  -0.0000  -0.0029  -0.0018  -0.0011   0.0113   0.0009  -0.0000
 168 O_a :3d1+   0.0000  -0.0000   0.0000  -0.0000   0.0000   0.0000  -0.0128
 169 O_a :3d2+  -0.0000  -0.0093  -0.0004  -0.0074  -0.0000   0.0102  -0.0000
 170 O_a :3d2-   0.0001  -0.0076  -0.0057  -0.0012   0.0295  -0.0004   0.0000
 172 O_a :3d0    0.0001   0.0153  -0.0004   0.0061  -0.0040  -0.0120   0.0000
 173 O_a :3d1+  -0.0000   0.0000  -0.0000   0.0000  -0.0000  -0.0000  -0.0357
 174 O_a :3d2+   0.0001  -0.0263   0.0014  -0.0138   0.0004   0.0237   0.0000
 175 O_a :3d2-   0.0002  -0.0019  -0.0037  -0.0001   0.0216  -0.0035   0.0000
 178 O_a :3d1+  -0.0000   0.0000  -0.0000   0.0000  -0.0000  -0.0000  -0.0235
 179 O_a :3d2+   0.0002  -0.0084   0.0001  -0.0039   0.0009   0.0117   0.0000

    Orbital        14       15       16       17       18       19       20
   2 Cl_a:1s     0.0000   0.0010   0.0012   0.0000  -0.0084   0.0001  -0.0743
   3 Cl_a:1s     0.0000   0.0129  -0.0175   0.0000  -0.1890   0.0893  -0.2012
   4 Cl_a:1s    -0.0000   0.0008  -0.0076  -0.0000   0.0049   0.0124   0.0505
   5 Cl_a:1s    -0.0000   0.0033  -0.0320   0.0000  -0.0257   0.0691   0.4774
   7 Cl_a:1s     0.0000   0.0001   0.0031  -0.0000  -0.0050  -0.0061  -0.0498
   8 Cl_a:1s     0.0000   0.0054  -0.0206  -0.0000  -1.6404  -0.6427   4.5669
   9 Cl_a:2px    0.0000  -0.0007   0.0000   0.0000   0.0015   0.0103  -0.0109
  10 Cl_a:2py    0.0000   0.0005   0.0003   0.0000  -0.0010   0.0101   0.0024
  12 Cl_a:2px   -0.0000  -0.9566   0.0392   0.0000  -0.1028   0.1106  -0.0551
  13 Cl_a:2py    0.0000   0.1436   0.7379   0.0000  -0.4162   0.1207  -0.2960
  14 Cl_a:2pz    0.9558  -0.0000  -0.0000   0.1738   0.0000   0.0000   0.0000
  15 Cl_a:2px   -0.0000   0.0024  -0.0023   0.0000  -0.0022  -0.0134   0.0150
  16 Cl_a:2py    0.0000   0.0006  -0.0070  -0.0000   0.0007  -0.0136  -0.0159
  18 Cl_a:2px    0.0000  -0.0151  -0.0169  -0.0000  -0.1285  -0.1415   0.3764
  19 Cl_a:2py   -0.0000   0.0062  -0.0097   0.0000  -0.3714  -0.2652   0.8917
  20 Cl_a:2pz    0.0186   0.0000   0.0000   0.0520   0.0000   0.0000  -0.0000
  27 Cl_a:2px   -0.0000  -0.0197  -0.0001   0.0000  -0.2335   0.1888   0.2739
  28 Cl_a:2py    0.0000   0.0044   0.0153   0.0000  -0.8931   0.0761   1.9308
  29 Cl_a:2pz    0.0200  -0.0000  -0.0000   0.1677   0.0000  -0.0000   0.0000
  40 Cl_a:3d2-   0.0000  -0.0036   0.0092  -0.0000   0.0187  -0.0075   0.0073
  41 Cl_a:3d1-   0.0044   0.0000   0.0000  -0.0222   0.0000   0.0000  -0.0000
  42 Cl_a:3d0    0.0000   0.0015  -0.0063  -0.0000  -0.0197   0.0022  -0.0080
  44 Cl_a:3d2+   0.0000   0.0013  -0.0104  -0.0000  -0.0315   0.0021  -0.0150
  45 Cl_a:3d2-   0.0000  -0.0077   0.0138  -0.0000   0.0223  -0.0037   0.0517
  46 Cl_a:3d1-   0.0100   0.0000   0.0000  -0.0321   0.0000   0.0000  -0.0000
  47 Cl_a:3d0    0.0000   0.0023  -0.0096  -0.0000  -0.0206   0.0059  -0.0485
  49 Cl_a:3d2+   0.0000   0.0002  -0.0162  -0.0000  -0.0393   0.0222  -0.0482
  50 Cl_a:3d2-   0.0000  -0.0043  -0.0014  -0.0000  -0.0476  -0.1045   0.1822
  51 Cl_a:3d1-   0.0068   0.0000   0.0000  -0.0178   0.0000   0.0000  -0.0000
  52 Cl_a:3d0    0.0000   0.0017  -0.0015  -0.0000   0.0357   0.0626  -0.2063
  54 Cl_a:3d2+   0.0000  -0.0009  -0.0056  -0.0000   0.0531   0.0423  -0.3616
  69 Cl_a:4f3-   0.0000  -0.0025  -0.0027  -0.0000   0.0076   0.0064  -0.0358
  71 Cl_a:4f1-   0.0000   0.0007  -0.0028  -0.0000   0.0100   0.0085  -0.0408
  73 Cl_a:4f1+  -0.0000   0.0007  -0.0008   0.0000   0.0030   0.0038  -0.0113
  75 Cl_a:4f3+  -0.0000   0.0027  -0.0024   0.0000   0.0121   0.0094  -0.0444
  76 N_a :1s     0.0000   0.0006  -0.0112   0.0000  -0.0054  -0.0585   0.0328
  77 N_a :1s     0.0000  -0.0034  -0.2673   0.0000   0.1821  -0.2552   0.2066
  78 N_a :1s     0.0000  -0.0000  -0.0000   0.0000   0.0127   0.0693  -0.0290
  79 N_a :1s    -0.0000  -0.0259  -0.0783   0.0000   0.0499  -2.1699  -0.9680
  80 N_a :1s     0.0000   0.0002  -0.0029  -0.0000  -0.0039  -0.0255   0.0138
  82 N_a :1s    -0.0000  -0.0183  -0.0501  -0.0000   1.1328  -5.8817  -7.1357
  83 N_a :2px    0.0000   0.0304   0.2311   0.0000  -0.0606  -0.0399   0.0009
  84 N_a :2py    0.0000   0.0118  -0.3422   0.0000  -0.5875   0.1955  -0.3359
  85 N_a :2pz   -0.0050  -0.0000   0.0000  -0.6958  -0.0000  -0.0000  -0.0000
  86 N_a :2px    0.0000  -0.0037  -0.0135  -0.0000  -0.0129  -0.1794  -0.0529
  87 N_a :2py   -0.0000   0.0016  -0.0080   0.0000  -0.0033  -0.0162  -0.0615
  89 N_a :2px   -0.0000  -0.0166  -0.0262   0.0000  -0.1537  -1.5321  -0.1814
  90 N_a :2py   -0.0000   0.0144  -0.0783   0.0000  -0.3667  -0.3528   0.5245
  91 N_a :2pz    0.0148  -0.0000  -0.0000  -0.2273  -0.0000  -0.0000   0.0000
  98 N_a :2px    0.0000  -0.0033   0.0032   0.0000  -0.1334  -1.8967  -0.1353
  99 N_a :2py    0.0000   0.0064  -0.0286  -0.0000  -1.1626  -0.6533   2.6533
 100 N_a :2pz    0.0037  -0.0000   0.0000  -0.5951  -0.0000   0.0000  -0.0000
 111 N_a :3d2-   0.0000   0.0022   0.0289   0.0000   0.0037  -0.0186  -0.0277
 112 N_a :3d1-  -0.0151   0.0000   0.0000   0.0085   0.0000   0.0000  -0.0000
 113 N_a :3d0    0.0000   0.0006  -0.0154  -0.0000   0.0080   0.0482   0.0154
 114 N_a :3d1+  -0.0128  -0.0000   0.0000   0.0198  -0.0000  -0.0000  -0.0000
 115 N_a :3d2+   0.0000   0.0157  -0.0235   0.0000  -0.0126  -0.0806  -0.0069
 116 N_a :3d2-   0.0000   0.0055   0.0028  -0.0000  -0.0182  -0.1145  -0.1982
 117 N_a :3d1-  -0.0100   0.0000   0.0000   0.0032   0.0000   0.0000  -0.0000
 118 N_a :3d0    0.0000   0.0036  -0.0093  -0.0000  -0.0311   0.1032   0.2736
 119 N_a :3d1+  -0.0025   0.0000  -0.0000  -0.0117  -0.0000  -0.0000   0.0000
 120 N_a :3d2+  -0.0000   0.0075  -0.0283   0.0000  -0.0525  -0.3373   0.2744
 128 N_a :4f3-  -0.0000  -0.0044   0.0089   0.0000   0.0040  -0.0107  -0.0305
 130 N_a :4f1-   0.0000  -0.0008   0.0011  -0.0000   0.0024   0.0092  -0.0245
 132 N_a :4f1+   0.0000   0.0007   0.0008  -0.0000   0.0011   0.0120  -0.0013
 134 N_a :4f3+   0.0000   0.0052  -0.0008  -0.0000   0.0037  -0.0079  -0.0172
 135 O_a :1s    -0.0000  -0.0011   0.0008  -0.0000  -0.0043  -0.0380  -0.0072
 136 O_a :1s    -0.0000   0.0267   0.0262  -0.0000  -0.0050  -0.0373  -0.0185
 137 O_a :1s     0.0000   0.0014  -0.0005  -0.0000   0.0042   0.0345   0.0064
 138 O_a :1s     0.0000   0.0130   0.0329  -0.0000   0.1631   1.7973   0.3430
 139 O_a :1s    -0.0000  -0.0006   0.0002  -0.0000  -0.0018  -0.0165  -0.0030
 141 O_a :1s     0.0000   0.0115   0.0277   0.0000   0.3596   6.6023   2.7113
 142 O_a :2px    0.0000  -0.0246  -0.1300   0.0000   0.0329   0.0727   0.0311
 143 O_a :2py    0.0000  -0.1727   0.4943   0.0000   0.3067  -0.0459   0.0848
 144 O_a :2pz   -0.1688   0.0000  -0.0000   0.5735   0.0000  -0.0000   0.0000
 145 O_a :2px   -0.0000   0.0014  -0.0025   0.0000  -0.0060  -0.0649  -0.0149
 146 O_a :2py    0.0000  -0.0003  -0.0001   0.0000   0.0029  -0.0101   0.0012
 148 O_a :2px   -0.0000  -0.0013  -0.0170  -0.0000  -0.1166  -1.2125  -0.3239
 149 O_a :2py    0.0000  -0.0115   0.0499  -0.0000   0.1078  -0.1269   0.0385
 150 O_a :2pz   -0.0110  -0.0000   0.0000   0.1705   0.0000   0.0000  -0.0000
 157 O_a :2px    0.0000  -0.0003  -0.0119   0.0000  -0.1310  -1.8300  -0.8031
 158 O_a :2py   -0.0000  -0.0115   0.0388   0.0000   0.3994  -0.2548  -0.3630
 159 O_a :2pz   -0.0100   0.0000  -0.0000   0.4837   0.0000  -0.0000   0.0000
 170 O_a :3d2-  -0.0000   0.0023   0.0030   0.0000   0.0179   0.0052   0.0135
 172 O_a :3d0   -0.0000  -0.0008  -0.0021   0.0000  -0.0021  -0.0307  -0.0062
 173 O_a :3d1+   0.0034  -0.0000   0.0000   0.0165  -0.0000  -0.0000   0.0000
 174 O_a :3d2+  -0.0000   0.0022   0.0008   0.0000   0.0040   0.0567   0.0100
 175 O_a :3d2-  -0.0000   0.0002  -0.0046   0.0000  -0.0074   0.0499   0.0079
 177 O_a :3d0   -0.0000  -0.0011   0.0012  -0.0000  -0.0203  -0.1510  -0.0626
 178 O_a :3d1+   0.0030  -0.0000  -0.0000  -0.0112  -0.0000  -0.0000   0.0000
 179 O_a :3d2+   0.0000  -0.0001   0.0031   0.0000   0.0271   0.2381   0.0556
 191 O_a :4f1+  -0.0000   0.0005  -0.0000   0.0000   0.0024   0.0217   0.0067
 193 O_a :4f3+  -0.0000  -0.0004  -0.0002  -0.0000  -0.0036  -0.0237  -0.0056

    Orbital        21       22       23       24       25       26
   2 Cl_a:1s    -0.0473   0.0000  -0.0283  -0.0000  -0.1018  -0.1776
   3 Cl_a:1s    -0.0295   0.0000  -0.1028  -0.0000  -0.1730  -0.3665
   4 Cl_a:1s     0.0603   0.0000   0.0154  -0.0000   0.0988   0.1754
   5 Cl_a:1s     0.3660   0.0000   0.1730  -0.0000   1.0496   1.4042
   7 Cl_a:1s    -0.0448  -0.0000  -0.0171   0.0000  -0.0820  -0.1438
   8 Cl_a:1s     0.1883  -0.0000   1.3823   0.0000  -0.1867   0.2918
   9 Cl_a:2px    0.0349   0.0000   0.0417   0.0000   0.0145  -0.0106
  10 Cl_a:2py    0.0090  -0.0000  -0.0235  -0.0000   0.0111   0.0059
  11 Cl_a:2pz    0.0000   0.0563   0.0000  -0.0266  -0.0000   0.0000
  12 Cl_a:2px   -0.0122  -0.0000  -0.0106   0.0000   0.0805   0.0331
  13 Cl_a:2py   -0.0341   0.0000  -0.0436  -0.0000   0.2518   0.1164
  14 Cl_a:2pz   -0.0000   0.0106   0.0000   0.0341  -0.0000  -0.0000
  15 Cl_a:2px   -0.0568   0.0000  -0.0698  -0.0000  -0.0212   0.0160
  16 Cl_a:2py   -0.0164  -0.0000   0.0352   0.0000  -0.0119  -0.0105
  17 Cl_a:2pz   -0.0000  -0.0914  -0.0000   0.0453   0.0000  -0.0000
  18 Cl_a:2px   -0.3870  -0.0000  -0.2397   0.0000  -0.0135   0.3947
  19 Cl_a:2py    0.0881   0.0000   0.5375  -0.0000   0.5652   0.6152
  20 Cl_a:2pz    0.0000  -0.5406   0.0000   0.2296  -0.0000   0.0000
  27 Cl_a:2px    0.7678   0.0000   1.7776  -0.0000  -0.7190  -0.0166
  28 Cl_a:2py    0.9134  -0.0000  -0.4351   0.0000  -0.9146  -0.4929
  29 Cl_a:2pz   -0.0000   0.8096  -0.0000  -1.6194   0.0000  -0.0000
  42 Cl_a:3d0   -0.0045  -0.0000  -0.0018   0.0000   0.0070  -0.0125
  44 Cl_a:3d2+  -0.0039  -0.0000  -0.0036   0.0000   0.0109   0.0068
  45 Cl_a:3d2-  -0.0200  -0.0000  -0.0173   0.0000   0.0566   0.0434
  46 Cl_a:3d1-   0.0000   0.0005   0.0000   0.0527  -0.0000   0.0000
  47 Cl_a:3d0    0.0227  -0.0000  -0.0306   0.0000  -0.0321  -0.0527
  48 Cl_a:3d1+   0.0000  -0.0005   0.0000   0.0135  -0.0000  -0.0000
  49 Cl_a:3d2+  -0.0028  -0.0000  -0.0522   0.0000  -0.0494  -0.0560
  50 Cl_a:3d2-  -0.0021  -0.0000   0.1550   0.0000  -0.1207   0.0398
  51 Cl_a:3d1-   0.0000  -0.0719   0.0000  -0.1790  -0.0000   0.0000
  52 Cl_a:3d0   -0.1139  -0.0000  -0.0349   0.0000   0.0499  -0.0930
  53 Cl_a:3d1+   0.0000  -0.0185   0.0000  -0.0479  -0.0000  -0.0000
  54 Cl_a:3d2+  -0.1408  -0.0000  -0.0058   0.0000  -0.0065   0.0294
  69 Cl_a:4f3-  -0.0210  -0.0000  -0.0007   0.0000  -0.0142   0.0084
  71 Cl_a:4f1-  -0.0109  -0.0000  -0.0116   0.0000   0.0118  -0.0115
  72 Cl_a:4f0   -0.0000   0.0083  -0.0000   0.0110   0.0000  -0.0000
  74 Cl_a:4f2+  -0.0000   0.0075  -0.0000   0.0104   0.0000  -0.0000
  75 Cl_a:4f3+   0.0104   0.0000  -0.0208  -0.0000   0.0085  -0.0084
  76 N_a :1s     0.0179   0.0000   0.0015  -0.0000  -0.0280   0.0734
  77 N_a :1s     0.1847   0.0000  -0.0223  -0.0000  -0.1515   0.3983
  78 N_a :1s    -0.0010   0.0000  -0.0074  -0.0000   0.0160  -0.0380
  79 N_a :1s     0.5466   0.0000  -0.6525  -0.0000   0.0842   0.2804
  80 N_a :1s     0.0047  -0.0000   0.0019   0.0000  -0.0109   0.0271
  82 N_a :1s    -0.5571  -0.0000  -3.4542   0.0000   0.5806  -1.9096
  83 N_a :2px   -0.0648   0.0000   0.0218  -0.0000  -0.0318   0.0053
  84 N_a :2py    0.0634  -0.0000  -0.1098   0.0000   0.2144   0.1336
  85 N_a :2pz   -0.0000  -0.1453  -0.0000  -0.1972   0.0000  -0.0000
  86 N_a :2px    0.0553  -0.0000  -0.0492   0.0000  -0.0212   0.0334
  87 N_a :2py   -0.0244   0.0000  -0.0083  -0.0000  -0.0397  -0.0226
  88 N_a :2pz    0.0000   0.0089   0.0000   0.0111  -0.0000   0.0000
  89 N_a :2px    0.1352   0.0000  -0.1677  -0.0000   0.5450  -0.5254
  90 N_a :2py   -0.0179   0.0000   0.2615  -0.0000  -0.0336   0.5832
  91 N_a :2pz   -0.0000  -0.2623  -0.0000  -0.4105   0.0000  -0.0000
  98 N_a :2px    0.8523  -0.0000  -1.9446   0.0000   1.8625  -1.5119
  99 N_a :2py   -0.7661  -0.0000   1.2460   0.0000   0.7600   1.2514
 100 N_a :2pz   -0.0000   0.5027  -0.0000   1.6545   0.0000   0.0000
 111 N_a :3d2-  -0.0052  -0.0000  -0.0013   0.0000  -0.0309   0.0077
 113 N_a :3d0    0.0104  -0.0000  -0.0067   0.0000  -0.0130   0.0260
 114 N_a :3d1+  -0.0000  -0.0383  -0.0000  -0.0554   0.0000  -0.0000
 115 N_a :3d2+   0.0013   0.0000  -0.0023  -0.0000   0.0254  -0.0475
 116 N_a :3d2-  -0.3122  -0.0000   0.1178   0.0000  -0.3333   0.0398
 117 N_a :3d1-   0.0000  -0.0759   0.0000  -0.1433  -0.0000   0.0000
 118 N_a :3d0    0.0122  -0.0000   0.1168   0.0000  -0.0512   0.3019
 119 N_a :3d1+  -0.0000  -0.0876  -0.0000  -0.1256   0.0000  -0.0000
 120 N_a :3d2+  -0.0041   0.0000   0.0901  -0.0000   0.4866  -0.1601
 128 N_a :4f3-  -0.0194   0.0000   0.0076  -0.0000  -0.0434  -0.0169
 130 N_a :4f1-   0.0048  -0.0000  -0.0160   0.0000  -0.0139  -0.0306
 131 N_a :4f0    0.0000   0.0019   0.0000   0.0107  -0.0000   0.0000
 132 N_a :4f1+  -0.0008  -0.0000  -0.0048   0.0000  -0.0314   0.0406
 133 N_a :4f2+   0.0000  -0.0221   0.0000  -0.0267  -0.0000   0.0000
 134 N_a :4f3+  -0.0309  -0.0000  -0.0029   0.0000   0.0207  -0.0617
 135 O_a :1s     0.0171  -0.0000  -0.0069   0.0000  -0.0091   0.0399
 136 O_a :1s     0.0483  -0.0000   0.0036   0.0000  -0.0333   0.1822
 137 O_a :1s    -0.0144   0.0000   0.0052  -0.0000   0.0100  -0.0397
 138 O_a :1s    -0.1164  -0.0000   0.1740   0.0000  -0.5619   0.5098
 139 O_a :1s     0.0069  -0.0000  -0.0028   0.0000  -0.0039   0.0166
 141 O_a :1s    -1.2161   0.0000   2.8654  -0.0000  -0.8539   0.9210
 142 O_a :2px    0.0125   0.0000  -0.0060  -0.0000   0.0531  -0.0194
 143 O_a :2py   -0.0101  -0.0000   0.0354   0.0000  -0.1933  -0.0486
 144 O_a :2pz    0.0000  -0.0541   0.0000  -0.0194  -0.0000   0.0000
 145 O_a :2px   -0.0102   0.0000   0.0026  -0.0000   0.0272  -0.0570
 146 O_a :2py   -0.0152   0.0000   0.0068  -0.0000   0.0143  -0.0054
 147 O_a :2pz    0.0000   0.0136  -0.0000   0.0164   0.0000  -0.0000
 148 O_a :2px    0.2459   0.0000  -0.2599  -0.0000  -0.0115   0.1247
 149 O_a :2py    0.2433  -0.0000  -0.1673   0.0000   0.2411  -0.2518
 150 O_a :2pz    0.0000   0.1088   0.0000   0.1987  -0.0000   0.0000
 157 O_a :2px    0.0986   0.0000  -0.4316  -0.0000  -1.0280   1.6900
 158 O_a :2py    0.7845   0.0000  -0.2704  -0.0000   0.0958  -0.5004
 159 O_a :2pz    0.0000   0.1579  -0.0000   0.0483  -0.0000  -0.0000
 170 O_a :3d2-  -0.0014   0.0000   0.0074  -0.0000  -0.0131   0.0121
 172 O_a :3d0    0.0102   0.0000  -0.0089  -0.0000   0.0157  -0.0163
 174 O_a :3d2+  -0.0067   0.0000   0.0070  -0.0000  -0.0007   0.0228
 175 O_a :3d2-  -0.1260   0.0000   0.0728  -0.0000  -0.1364   0.0410
 176 O_a :3d1-  -0.0000   0.0135  -0.0000   0.0142   0.0000   0.0000
 177 O_a :3d0    0.0613  -0.0000  -0.0457   0.0000  -0.1273   0.1068
 178 O_a :3d1+  -0.0000  -0.0921  -0.0000  -0.1328   0.0000  -0.0000
 179 O_a :3d2+  -0.0428   0.0000   0.0486  -0.0000   0.1402  -0.3000
 187 O_a :4f3-   0.0097  -0.0000  -0.0078   0.0000   0.0119   0.0026
 190 O_a :4f0   -0.0000  -0.0087  -0.0000  -0.0146   0.0000  -0.0000
 191 O_a :4f1+  -0.0133   0.0000   0.0081  -0.0000   0.0149  -0.0223
 192 O_a :4f2+  -0.0000   0.0131   0.0000   0.0185  -0.0000   0.0000
 193 O_a :4f3+   0.0030  -0.0000  -0.0058   0.0000  -0.0210   0.0366

  Total CPU  time used in SIRIUS :  44.51 seconds
  Total wall time used in SIRIUS :  44.71 seconds

 
     Date and time (Linux)  : Wed Sep 13 22:20:00 2023
     Host name              : sn-mem                                  


                     .---------------------------------------.
                     | End of Wave Function Section (SIRIUS) |
                     `---------------------------------------'



                 .------------------------------------------------.
                 | Starting in Dynamic Property Section (RESPONS) |
                 `------------------------------------------------'


 ----------------------------------------------------------------------------------------
  RESPONSE  -  an MCSCF, MC-srDFT, DFT, SOPPA and SOPPA-srDFT response property program
 ----------------------------------------------------------------------------------------


 -------- OUTPUT FROM RESPONSE INPUT PROCESSING --------




 Quadratic Response calculation
 ------------------------------

 First hyperpolarizability calculation : HYPCAL= T

 Spin of operator A , ISPINA=    0
 Spin of operator B , ISPINB=    0
 Spin of operator C , ISPINC=    0

  5 B-frequencies  0.000000D+00  6.344563D-03  1.268913D-02  1.903369D-02  2.537825D-02
  5 C-frequencies  0.000000D+00  6.344563D-03  1.268913D-02  1.903369D-02  2.537825D-02


 Print level                                    : IPRHYP =   2
 Maximum number of iterations in lin.rsp. solver: MAXITL =  60
 Threshold for convergence of linear resp. eq.s : THCLR  = 1.000D-03
 Maximum iterations in optimal orbital algorithm: MAXITO =   5
 Direct one-index transformation                : DIROIT = T

    3 A OPERATORS OF SYMMETRY NO:    1 AND LABELS:

          XDIPLEN 
          YDIPLEN 
          ZDIPLEN 

    3 B OPERATORS OF SYMMETRY NO:    1 AND LABELS:

          XDIPLEN 
          YDIPLEN 
          ZDIPLEN 

    3 C OPERATORS OF SYMMETRY NO:    1 AND LABELS:

          XDIPLEN 
          YDIPLEN 
          ZDIPLEN 


   SCF energy         :     -588.770482200532797
 -- inactive part     :     -673.918901984985837
 -- nuclear repulsion :       85.148419784453068


                     ***************************************
                     *** RHF response calculation (TDHF) ***
                     ***************************************



 Linear response calculations for quadratic response
 - singlet property operator of symmetry    1  ( A  )


 Perturbation symmetry.     KSYMOP:           1
 Perturbation spin symmetry.TRPLET:           F
 Orbital variables.         KZWOPT:        2832
 Configuration variables.   KZCONF:           0
 Total number of variables. KZVAR :        2832


 QRLRVE -- linear response calculation for symmetry  1  ( A  )
 QRLRVE -- operator label : XDIPLEN 
 QRLRVE -- operator spin  :   0
 QRLRVE -- frequencies :  0.000000  0.006345  0.012689  0.019034  0.025378
                          0.031723  0.038067  0.044412  0.050757



 ---  SOLVING SETS OF LINEAR EQUATIONS FOR LINEAR RESPONSE PROPERTIES ---

 Operator symmetry = 1  ( A  ); triplet =   F

RSPORT:    2 out of    9 new trial vectors linear dependent

 ** RSPCTL MICROITERATION NUMBER    1

       No.  Residual tot.,    conf., and orb.    Bnorm      Frequency 
      ----------------------------------------------------------------
         1    4.21886D+00  0.00D+00  4.22D+00  4.03D+00    0.00000D+00
         2    4.21958D+00  0.00D+00  4.22D+00  4.04D+00    6.34456D-03
         3    4.22175D+00  0.00D+00  4.22D+00  4.04D+00    1.26891D-02
         4    4.22537D+00  0.00D+00  4.23D+00  4.05D+00    1.90337D-02
         5    4.23046D+00  0.00D+00  4.23D+00  4.06D+00    2.53783D-02
         6    4.23703D+00  0.00D+00  4.24D+00  4.08D+00    3.17228D-02
         7    4.24513D+00  0.00D+00  4.25D+00  4.10D+00    3.80674D-02
         8    4.25477D+00  0.00D+00  4.25D+00  4.12D+00    4.44119D-02
         9    4.26601D+00  0.00D+00  4.27D+00  4.14D+00    5.07565D-02

 ** RSPCTL MICROITERATION NUMBER    2

       No.  Residual tot.,    conf., and orb.    Bnorm      Frequency 
      ----------------------------------------------------------------
         1    1.23181D+00  0.00D+00  1.23D+00  5.02D+00    0.00000D+00
         2    1.23223D+00  0.00D+00  1.23D+00  5.02D+00    6.34456D-03
         3    1.23350D+00  0.00D+00  1.23D+00  5.03D+00    1.26891D-02
         4    1.23564D+00  0.00D+00  1.24D+00  5.05D+00    1.90337D-02
         5    1.23866D+00  0.00D+00  1.24D+00  5.07D+00    2.53783D-02
         6    1.24258D+00  0.00D+00  1.24D+00  5.09D+00    3.17228D-02
         7    1.24746D+00  0.00D+00  1.25D+00  5.12D+00    3.80674D-02
         8    1.25333D+00  0.00D+00  1.25D+00  5.16D+00    4.44119D-02
         9    1.26026D+00  0.00D+00  1.26D+00  5.21D+00    5.07565D-02

 ** RSPCTL MICROITERATION NUMBER    3

       No.  Residual tot.,    conf., and orb.    Bnorm      Frequency 
      ----------------------------------------------------------------
         1    3.31345D-01  0.00D+00  3.31D-01  5.17D+00    0.00000D+00
         2    3.31517D-01  0.00D+00  3.32D-01  5.17D+00    6.34456D-03
         3    3.32036D-01  0.00D+00  3.32D-01  5.18D+00    1.26891D-02
         4    3.32908D-01  0.00D+00  3.33D-01  5.19D+00    1.90337D-02
         5    3.34142D-01  0.00D+00  3.34D-01  5.22D+00    2.53783D-02
         6    3.35752D-01  0.00D+00  3.36D-01  5.24D+00    3.17228D-02
         7    3.37756D-01  0.00D+00  3.38D-01  5.28D+00    3.80674D-02
         8    3.40180D-01  0.00D+00  3.40D-01  5.32D+00    4.44119D-02
         9    3.43053D-01  0.00D+00  3.43D-01  5.37D+00    5.07565D-02

 ** RSPCTL MICROITERATION NUMBER    4

       No.  Residual tot.,    conf., and orb.    Bnorm      Frequency 
      ----------------------------------------------------------------
         1    9.98029D-02  0.00D+00  9.98D-02  5.17D+00    0.00000D+00
         2    9.98841D-02  0.00D+00  9.99D-02  5.17D+00    6.34456D-03
         3    1.00129D-01  0.00D+00  1.00D-01  5.18D+00    1.26891D-02
         4    1.00540D-01  0.00D+00  1.01D-01  5.20D+00    1.90337D-02
         5    1.01124D-01  0.00D+00  1.01D-01  5.22D+00    2.53783D-02
         6    1.01889D-01  0.00D+00  1.02D-01  5.25D+00    3.17228D-02
         7    1.02845D-01  0.00D+00  1.03D-01  5.28D+00    3.80674D-02
         8    1.04006D-01  0.00D+00  1.04D-01  5.33D+00    4.44119D-02
         9    1.05391D-01  0.00D+00  1.05D-01  5.38D+00    5.07565D-02

 ** RSPCTL MICROITERATION NUMBER    5

       No.  Residual tot.,    conf., and orb.    Bnorm      Frequency 
      ----------------------------------------------------------------
         1    1.65751D-02  0.00D+00  1.66D-02  5.17D+00    0.00000D+00
         2    1.65885D-02  0.00D+00  1.66D-02  5.17D+00    6.34456D-03
         3    1.66289D-02  0.00D+00  1.66D-02  5.18D+00    1.26891D-02
         4    1.66970D-02  0.00D+00  1.67D-02  5.20D+00    1.90337D-02
         5    1.67941D-02  0.00D+00  1.68D-02  5.22D+00    2.53783D-02
         6    1.69221D-02  0.00D+00  1.69D-02  5.25D+00    3.17228D-02
         7    1.70835D-02  0.00D+00  1.71D-02  5.28D+00    3.80674D-02
         8    1.72818D-02  0.00D+00  1.73D-02  5.33D+00    4.44119D-02
         9    1.75213D-02  0.00D+00  1.75D-02  5.38D+00    5.07565D-02

 ** RSPCTL MICROITERATION NUMBER    6

       No.  Residual tot.,    conf., and orb.    Bnorm      Frequency 
      ----------------------------------------------------------------
         1    2.19130D-03  0.00D+00  2.19D-03  5.17D+00    0.00000D+00
         2    2.19348D-03  0.00D+00  2.19D-03  5.17D+00    6.34456D-03
         3    2.20007D-03  0.00D+00  2.20D-03  5.18D+00    1.26891D-02
         4    2.21118D-03  0.00D+00  2.21D-03  5.20D+00    1.90337D-02
         5    2.22701D-03  0.00D+00  2.23D-03  5.22D+00    2.53783D-02
         6    2.24785D-03  0.00D+00  2.25D-03  5.25D+00    3.17228D-02
         7    2.27410D-03  0.00D+00  2.27D-03  5.28D+00    3.80674D-02
         8    2.30629D-03  0.00D+00  2.31D-03  5.33D+00    4.44119D-02
         9    2.34511D-03  0.00D+00  2.35D-03  5.38D+00    5.07565D-02

 *** THE REQUESTED    9 SOLUTION VECTORS CONVERGED

 Convergence of RSP solution vectors, threshold = 1.00D-03
 ---------------------------------------------------------------
 (dimension of paired reduced space:  104)
 RSP solution vector no.    1; norm of residual   4.24D-04
 RSP solution vector no.    2; norm of residual   4.24D-04
 RSP solution vector no.    3; norm of residual   4.24D-04
 RSP solution vector no.    4; norm of residual   4.25D-04
 RSP solution vector no.    5; norm of residual   4.27D-04
 RSP solution vector no.    6; norm of residual   4.28D-04
 RSP solution vector no.    7; norm of residual   4.30D-04
 RSP solution vector no.    8; norm of residual   4.33D-04
 RSP solution vector no.    9; norm of residual   4.36D-04

 *** RSPCTL MICROITERATIONS CONVERGED

@ QRLRVE: SINGLET SOLUTION FOR SYMMETRY    1  ( A  )    LABEL   XDIPLEN     FREQUENCY   0.000000D+00

@ QRLRVE:  << XDIPLEN  ; XDIPLEN  >> (   0.00000):     31.4215499134    

@ QRLRVE:  << YDIPLEN  ; XDIPLEN  >> (   0.00000):     12.9015039252    

@ QRLRVE:  << ZDIPLEN  ; XDIPLEN  >> (   0.00000):    1.223638069500E-15

@ QRLRVE: SINGLET SOLUTION FOR SYMMETRY    1  ( A  )    LABEL   XDIPLEN     FREQUENCY   0.634456D-02

@ QRLRVE:  << XDIPLEN  ; XDIPLEN  >> (   0.00634):     31.4283887834    

@ QRLRVE:  << YDIPLEN  ; XDIPLEN  >> (   0.00634):     12.9096240204    

@ QRLRVE:  << ZDIPLEN  ; XDIPLEN  >> (   0.00634):    1.212723605826E-15

@ QRLRVE: SINGLET SOLUTION FOR SYMMETRY    1  ( A  )    LABEL   XDIPLEN     FREQUENCY   0.126891D-01

@ QRLRVE:  << XDIPLEN  ; XDIPLEN  >> (   0.01269):     31.4489435924    

@ QRLRVE:  << YDIPLEN  ; XDIPLEN  >> (   0.01269):     12.9340553179    

@ QRLRVE:  << ZDIPLEN  ; XDIPLEN  >> (   0.01269):    1.179616464719E-15

@ QRLRVE: SINGLET SOLUTION FOR SYMMETRY    1  ( A  )    LABEL   XDIPLEN     FREQUENCY   0.190337D-01

@ QRLRVE:  << XDIPLEN  ; XDIPLEN  >> (   0.01903):     31.4833297332    

@ QRLRVE:  << YDIPLEN  ; XDIPLEN  >> (   0.01903):     12.9750125917    

@ QRLRVE:  << ZDIPLEN  ; XDIPLEN  >> (   0.01903):    1.123208287088E-15

@ QRLRVE: SINGLET SOLUTION FOR SYMMETRY    1  ( A  )    LABEL   XDIPLEN     FREQUENCY   0.253783D-01

@ QRLRVE:  << XDIPLEN  ; XDIPLEN  >> (   0.02538):     31.5317422150    

@ QRLRVE:  << YDIPLEN  ; XDIPLEN  >> (   0.02538):     13.0328596762    

@ QRLRVE:  << ZDIPLEN  ; XDIPLEN  >> (   0.02538):    1.041593593031E-15

@ QRLRVE: SINGLET SOLUTION FOR SYMMETRY    1  ( A  )    LABEL   XDIPLEN     FREQUENCY   0.317228D-01

@ QRLRVE:  << XDIPLEN  ; XDIPLEN  >> (   0.03172):     31.5944598269    

@ QRLRVE:  << YDIPLEN  ; XDIPLEN  >> (   0.03172):     13.1081185880    

@ QRLRVE:  << ZDIPLEN  ; XDIPLEN  >> (   0.03172):    9.319781944388E-16

@ QRLRVE: SINGLET SOLUTION FOR SYMMETRY    1  ( A  )    LABEL   XDIPLEN     FREQUENCY   0.380674D-01

@ QRLRVE:  << XDIPLEN  ; XDIPLEN  >> (   0.03807):     31.6718512431    

@ QRLRVE:  << YDIPLEN  ; XDIPLEN  >> (   0.03807):     13.2014829333    

@ QRLRVE:  << ZDIPLEN  ; XDIPLEN  >> (   0.03807):    7.905420059407E-16

@ QRLRVE: SINGLET SOLUTION FOR SYMMETRY    1  ( A  )    LABEL   XDIPLEN     FREQUENCY   0.444119D-01

@ QRLRVE:  << XDIPLEN  ; XDIPLEN  >> (   0.04441):     31.7643833727    

@ QRLRVE:  << YDIPLEN  ; XDIPLEN  >> (   0.04441):     13.3138363003    

@ QRLRVE:  << ZDIPLEN  ; XDIPLEN  >> (   0.04441):    6.122462088411E-16

@ QRLRVE: SINGLET SOLUTION FOR SYMMETRY    1  ( A  )    LABEL   XDIPLEN     FREQUENCY   0.507565D-01

@ QRLRVE:  << XDIPLEN  ; XDIPLEN  >> (   0.05076):     31.8726323866    

@ QRLRVE:  << YDIPLEN  ; XDIPLEN  >> (   0.05076):     13.4462766418    

@ QRLRVE:  << ZDIPLEN  ; XDIPLEN  >> (   0.05076):    3.905701436624E-16


 QRLRVE -- linear response calculation for symmetry  1  ( A  )
 QRLRVE -- operator label : YDIPLEN 
 QRLRVE -- operator spin  :   0
 QRLRVE -- frequencies :  0.000000  0.006345  0.012689  0.019034  0.025378
                          0.031723  0.038067  0.044412  0.050757



 ---  SOLVING SETS OF LINEAR EQUATIONS FOR LINEAR RESPONSE PROPERTIES ---

 Operator symmetry = 1  ( A  ); triplet =   F

RSPORT:    2 out of    9 new trial vectors linear dependent

 ** RSPCTL MICROITERATION NUMBER    1

       No.  Residual tot.,    conf., and orb.    Bnorm      Frequency 
      ----------------------------------------------------------------
         1    4.68161D+00  0.00D+00  4.68D+00  5.67D+00    0.00000D+00
         2    4.68334D+00  0.00D+00  4.68D+00  5.67D+00    6.34456D-03
         3    4.68853D+00  0.00D+00  4.69D+00  5.69D+00    1.26891D-02
         4    4.69722D+00  0.00D+00  4.70D+00  5.71D+00    1.90337D-02
         5    4.70944D+00  0.00D+00  4.71D+00  5.73D+00    2.53783D-02
         6    4.72528D+00  0.00D+00  4.73D+00  5.77D+00    3.17228D-02
         7    4.74480D+00  0.00D+00  4.74D+00  5.82D+00    3.80674D-02
         8    4.76813D+00  0.00D+00  4.77D+00  5.87D+00    4.44119D-02
         9    4.79538D+00  0.00D+00  4.80D+00  5.93D+00    5.07565D-02

 ** RSPCTL MICROITERATION NUMBER    2

       No.  Residual tot.,    conf., and orb.    Bnorm      Frequency 
      ----------------------------------------------------------------
         1    1.62119D+00  0.00D+00  1.62D+00  7.48D+00    0.00000D+00
         2    1.62248D+00  0.00D+00  1.62D+00  7.49D+00    6.34456D-03
         3    1.62636D+00  0.00D+00  1.63D+00  7.51D+00    1.26891D-02
         4    1.63289D+00  0.00D+00  1.63D+00  7.55D+00    1.90337D-02
         5    1.64212D+00  0.00D+00  1.64D+00  7.60D+00    2.53783D-02
         6    1.65418D+00  0.00D+00  1.65D+00  7.67D+00    3.17228D-02
         7    1.66918D+00  0.00D+00  1.67D+00  7.76D+00    3.80674D-02
         8    1.68732D+00  0.00D+00  1.69D+00  7.86D+00    4.44119D-02
         9    1.70880D+00  0.00D+00  1.71D+00  7.98D+00    5.07565D-02

 ** RSPCTL MICROITERATION NUMBER    3

       No.  Residual tot.,    conf., and orb.    Bnorm      Frequency 
      ----------------------------------------------------------------
         1    4.37313D-01  0.00D+00  4.37D-01  7.67D+00    0.00000D+00
         2    4.37718D-01  0.00D+00  4.38D-01  7.68D+00    6.34456D-03
         3    4.38939D-01  0.00D+00  4.39D-01  7.70D+00    1.26891D-02
         4    4.40989D-01  0.00D+00  4.41D-01  7.75D+00    1.90337D-02
         5    4.43893D-01  0.00D+00  4.44D-01  7.80D+00    2.53783D-02
         6    4.47686D-01  0.00D+00  4.48D-01  7.88D+00    3.17228D-02
         7    4.52415D-01  0.00D+00  4.52D-01  7.97D+00    3.80674D-02
         8    4.58140D-01  0.00D+00  4.58D-01  8.08D+00    4.44119D-02
         9    4.64935D-01  0.00D+00  4.65D-01  8.21D+00    5.07565D-02

 ** RSPCTL MICROITERATION NUMBER    4

       No.  Residual tot.,    conf., and orb.    Bnorm      Frequency 
      ----------------------------------------------------------------
         1    9.94886D-02  0.00D+00  9.95D-02  7.68D+00    0.00000D+00
         2    9.95471D-02  0.00D+00  9.95D-02  7.68D+00    6.34456D-03
         3    9.97231D-02  0.00D+00  9.97D-02  7.71D+00    1.26891D-02
         4    1.00018D-01  0.00D+00  1.00D-01  7.75D+00    1.90337D-02
         5    1.00436D-01  0.00D+00  1.00D-01  7.81D+00    2.53783D-02
         6    1.00980D-01  0.00D+00  1.01D-01  7.88D+00    3.17228D-02
         7    1.01658D-01  0.00D+00  1.02D-01  7.97D+00    3.80674D-02
         8    1.02475D-01  0.00D+00  1.02D-01  8.09D+00    4.44119D-02
         9    1.03443D-01  0.00D+00  1.03D-01  8.22D+00    5.07565D-02

 ** RSPCTL MICROITERATION NUMBER    5

       No.  Residual tot.,    conf., and orb.    Bnorm      Frequency 
      ----------------------------------------------------------------
         1    1.92357D-02  0.00D+00  1.92D-02  7.68D+00    0.00000D+00
         2    1.92526D-02  0.00D+00  1.93D-02  7.69D+00    6.34456D-03
         3    1.93034D-02  0.00D+00  1.93D-02  7.71D+00    1.26891D-02
         4    1.93888D-02  0.00D+00  1.94D-02  7.75D+00    1.90337D-02
         5    1.95099D-02  0.00D+00  1.95D-02  7.81D+00    2.53783D-02
         6    1.96681D-02  0.00D+00  1.97D-02  7.88D+00    3.17228D-02
         7    1.98656D-02  0.00D+00  1.99D-02  7.98D+00    3.80674D-02
         8    2.01052D-02  0.00D+00  2.01D-02  8.09D+00    4.44119D-02
         9    2.03904D-02  0.00D+00  2.04D-02  8.22D+00    5.07565D-02

 ** RSPCTL MICROITERATION NUMBER    6

       No.  Residual tot.,    conf., and orb.    Bnorm      Frequency 
      ----------------------------------------------------------------
         1    3.15585D-03  0.00D+00  3.16D-03  7.68D+00    0.00000D+00
         2    3.15925D-03  0.00D+00  3.16D-03  7.69D+00    6.34456D-03
         3    3.16950D-03  0.00D+00  3.17D-03  7.71D+00    1.26891D-02
         4    3.18674D-03  0.00D+00  3.19D-03  7.75D+00    1.90337D-02
         5    3.21122D-03  0.00D+00  3.21D-03  7.81D+00    2.53783D-02
         6    3.24329D-03  0.00D+00  3.24D-03  7.88D+00    3.17228D-02
         7    3.28344D-03  0.00D+00  3.28D-03  7.98D+00    3.80674D-02
         8    3.33232D-03  0.00D+00  3.33D-03  8.09D+00    4.44119D-02
         9    3.39076D-03  0.00D+00  3.39D-03  8.22D+00    5.07565D-02

 *** THE REQUESTED    9 SOLUTION VECTORS CONVERGED

 Convergence of RSP solution vectors, threshold = 1.00D-03
 ---------------------------------------------------------------
 (dimension of paired reduced space:  104)
 RSP solution vector no.    1; norm of residual   4.11D-04
 RSP solution vector no.    2; norm of residual   4.11D-04
 RSP solution vector no.    3; norm of residual   4.11D-04
 RSP solution vector no.    4; norm of residual   4.11D-04
 RSP solution vector no.    5; norm of residual   4.11D-04
 RSP solution vector no.    6; norm of residual   4.11D-04
 RSP solution vector no.    7; norm of residual   4.12D-04
 RSP solution vector no.    8; norm of residual   4.12D-04
 RSP solution vector no.    9; norm of residual   4.13D-04

 *** RSPCTL MICROITERATIONS CONVERGED

@ QRLRVE: SINGLET SOLUTION FOR SYMMETRY    1  ( A  )    LABEL   YDIPLEN     FREQUENCY   0.000000D+00

@ QRLRVE:  << XDIPLEN  ; YDIPLEN  >> (   0.00000):     12.9019670488    

@ QRLRVE:  << YDIPLEN  ; YDIPLEN  >> (   0.00000):     47.5941348983    

@ QRLRVE:  << ZDIPLEN  ; YDIPLEN  >> (   0.00000):   -7.574489023695E-16

@ QRLRVE: SINGLET SOLUTION FOR SYMMETRY    1  ( A  )    LABEL   YDIPLEN     FREQUENCY   0.634456D-02

@ QRLRVE:  << XDIPLEN  ; YDIPLEN  >> (   0.00634):     12.9100874581    

@ QRLRVE:  << YDIPLEN  ; YDIPLEN  >> (   0.00634):     47.6149010126    

@ QRLRVE:  << ZDIPLEN  ; YDIPLEN  >> (   0.00634):   -7.506718279277E-16

@ QRLRVE: SINGLET SOLUTION FOR SYMMETRY    1  ( A  )    LABEL   YDIPLEN     FREQUENCY   0.126891D-01

@ QRLRVE:  << XDIPLEN  ; YDIPLEN  >> (   0.01269):     12.9345196959    

@ QRLRVE:  << YDIPLEN  ; YDIPLEN  >> (   0.01269):     47.6773726959    

@ QRLRVE:  << ZDIPLEN  ; YDIPLEN  >> (   0.01269):   -7.301876772642E-16

@ QRLRVE: SINGLET SOLUTION FOR SYMMETRY    1  ( A  )    LABEL   YDIPLEN     FREQUENCY   0.190337D-01

@ QRLRVE:  << XDIPLEN  ; YDIPLEN  >> (   0.01903):     12.9754785288    

@ QRLRVE:  << YDIPLEN  ; YDIPLEN  >> (   0.01903):     47.7820742043    

@ QRLRVE:  << ZDIPLEN  ; YDIPLEN  >> (   0.01903):   -6.955309912079E-16

@ QRLRVE: SINGLET SOLUTION FOR SYMMETRY    1  ( A  )    LABEL   YDIPLEN     FREQUENCY   0.253783D-01

@ QRLRVE:  << XDIPLEN  ; YDIPLEN  >> (   0.02538):     13.0333277784    

@ QRLRVE:  << YDIPLEN  ; YDIPLEN  >> (   0.02538):     47.9298936212    

@ QRLRVE:  << ZDIPLEN  ; YDIPLEN  >> (   0.02538):   -6.459032845730E-16

@ QRLRVE: SINGLET SOLUTION FOR SYMMETRY    1  ( A  )    LABEL   YDIPLEN     FREQUENCY   0.317228D-01

@ QRLRVE:  << XDIPLEN  ; YDIPLEN  >> (   0.03172):     13.1085894414    

@ QRLRVE:  << YDIPLEN  ; YDIPLEN  >> (   0.03172):     48.1221050866    

@ QRLRVE:  << ZDIPLEN  ; YDIPLEN  >> (   0.03172):   -5.801373002960E-16

@ QRLRVE: SINGLET SOLUTION FOR SYMMETRY    1  ( A  )    LABEL   YDIPLEN     FREQUENCY   0.380674D-01

@ QRLRVE:  << XDIPLEN  ; YDIPLEN  >> (   0.03807):     13.2019570948    

@ QRLRVE:  << YDIPLEN  ; YDIPLEN  >> (   0.03807):     48.3604014716    

@ QRLRVE:  << ZDIPLEN  ; YDIPLEN  >> (   0.03807):   -4.966434588491E-16

@ QRLRVE: SINGLET SOLUTION FOR SYMMETRY    1  ( A  )    LABEL   YDIPLEN     FREQUENCY   0.444119D-01

@ QRLRVE:  << XDIPLEN  ; YDIPLEN  >> (   0.04441):     13.3143142857    

@ QRLRVE:  << YDIPLEN  ; YDIPLEN  >> (   0.04441):     48.6469392063    

@ QRLRVE:  << ZDIPLEN  ; YDIPLEN  >> (   0.04441):   -3.933345645419E-16

@ QRLRVE: SINGLET SOLUTION FOR SYMMETRY    1  ( A  )    LABEL   YDIPLEN     FREQUENCY   0.507565D-01

@ QRLRVE:  << XDIPLEN  ; YDIPLEN  >> (   0.05076):     13.4467589092    

@ QRLRVE:  << YDIPLEN  ; YDIPLEN  >> (   0.05076):     48.9843977071    

@ QRLRVE:  << ZDIPLEN  ; YDIPLEN  >> (   0.05076):   -2.675230183391E-16


 QRLRVE -- linear response calculation for symmetry  1  ( A  )
 QRLRVE -- operator label : ZDIPLEN 
 QRLRVE -- operator spin  :   0
 QRLRVE -- frequencies :  0.000000  0.006345  0.012689  0.019034  0.025378
                          0.031723  0.038067  0.044412  0.050757



 ---  SOLVING SETS OF LINEAR EQUATIONS FOR LINEAR RESPONSE PROPERTIES ---

 Operator symmetry = 1  ( A  ); triplet =   F

RSPORT:    2 out of    9 new trial vectors linear dependent

 ** RSPCTL MICROITERATION NUMBER    1

       No.  Residual tot.,    conf., and orb.    Bnorm      Frequency 
      ----------------------------------------------------------------
         1    1.73220D+00  0.00D+00  1.73D+00  3.55D+00    0.00000D+00
         2    1.73239D+00  0.00D+00  1.73D+00  3.55D+00    6.34456D-03
         3    1.73298D+00  0.00D+00  1.73D+00  3.56D+00    1.26891D-02
         4    1.73397D+00  0.00D+00  1.73D+00  3.56D+00    1.90337D-02
         5    1.73535D+00  0.00D+00  1.74D+00  3.57D+00    2.53783D-02
         6    1.73714D+00  0.00D+00  1.74D+00  3.58D+00    3.17228D-02
         7    1.73934D+00  0.00D+00  1.74D+00  3.59D+00    3.80674D-02
         8    1.74196D+00  0.00D+00  1.74D+00  3.60D+00    4.44119D-02
         9    1.74501D+00  0.00D+00  1.75D+00  3.61D+00    5.07565D-02

 ** RSPCTL MICROITERATION NUMBER    2

       No.  Residual tot.,    conf., and orb.    Bnorm      Frequency 
      ----------------------------------------------------------------
         1    6.09442D-01  0.00D+00  6.09D-01  3.79D+00    0.00000D+00
         2    6.09745D-01  0.00D+00  6.10D-01  3.79D+00    6.34456D-03
         3    6.10663D-01  0.00D+00  6.11D-01  3.79D+00    1.26891D-02
         4    6.12226D-01  0.00D+00  6.12D-01  3.80D+00    1.90337D-02
         5    6.14488D-01  0.00D+00  6.14D-01  3.81D+00    2.53783D-02
         6    6.17531D-01  0.00D+00  6.18D-01  3.82D+00    3.17228D-02
         7    6.21477D-01  0.00D+00  6.21D-01  3.84D+00    3.80674D-02
         8    6.26503D-01  0.00D+00  6.27D-01  3.86D+00    4.44119D-02
         9    6.32868D-01  0.00D+00  6.33D-01  3.88D+00    5.07565D-02

 ** RSPCTL MICROITERATION NUMBER    3

       No.  Residual tot.,    conf., and orb.    Bnorm      Frequency 
      ----------------------------------------------------------------
         1    9.74367D-02  0.00D+00  9.74D-02  3.80D+00    0.00000D+00
         2    9.74995D-02  0.00D+00  9.75D-02  3.80D+00    6.34456D-03
         3    9.76912D-02  0.00D+00  9.77D-02  3.81D+00    1.26891D-02
         4    9.80232D-02  0.00D+00  9.80D-02  3.81D+00    1.90337D-02
         5    9.85166D-02  0.00D+00  9.85D-02  3.82D+00    2.53783D-02
         6    9.92064D-02  0.00D+00  9.92D-02  3.84D+00    3.17228D-02
         7    1.00149D-01  0.00D+00  1.00D-01  3.86D+00    3.80674D-02
         8    1.01436D-01  0.00D+00  1.01D-01  3.88D+00    4.44119D-02
         9    1.03219D-01  0.00D+00  1.03D-01  3.91D+00    5.07565D-02

 ** RSPCTL MICROITERATION NUMBER    4

       No.  Residual tot.,    conf., and orb.    Bnorm      Frequency 
      ----------------------------------------------------------------
         1    1.39943D-02  0.00D+00  1.40D-02  3.80D+00    0.00000D+00
         2    1.40179D-02  0.00D+00  1.40D-02  3.80D+00    6.34456D-03
         3    1.40905D-02  0.00D+00  1.41D-02  3.81D+00    1.26891D-02
         4    1.42181D-02  0.00D+00  1.42D-02  3.81D+00    1.90337D-02
         5    1.44117D-02  0.00D+00  1.44D-02  3.83D+00    2.53783D-02
         6    1.46895D-02  0.00D+00  1.47D-02  3.84D+00    3.17228D-02
         7    1.50808D-02  0.00D+00  1.51D-02  3.86D+00    3.80674D-02
         8    1.56321D-02  0.00D+00  1.56D-02  3.88D+00    4.44119D-02
         9    1.64196D-02  0.00D+00  1.64D-02  3.91D+00    5.07565D-02

 ** RSPCTL MICROITERATION NUMBER    5

       No.  Residual tot.,    conf., and orb.    Bnorm      Frequency 
      ----------------------------------------------------------------
         1    2.03436D-03  0.00D+00  2.03D-03  3.80D+00    0.00000D+00
         2    2.03887D-03  0.00D+00  2.04D-03  3.80D+00    6.34456D-03
         3    2.05292D-03  0.00D+00  2.05D-03  3.81D+00    1.26891D-02
         4    2.07820D-03  0.00D+00  2.08D-03  3.81D+00    1.90337D-02
         5    2.11783D-03  0.00D+00  2.12D-03  3.83D+00    2.53783D-02
         6    2.17704D-03  0.00D+00  2.18D-03  3.84D+00    3.17228D-02
         7    2.26414D-03  0.00D+00  2.26D-03  3.86D+00    3.80674D-02
         8    2.39236D-03  0.00D+00  2.39D-03  3.88D+00    4.44119D-02
         9    2.58283D-03  0.00D+00  2.58D-03  3.91D+00    5.07565D-02

 *** THE REQUESTED    9 SOLUTION VECTORS CONVERGED

 Convergence of RSP solution vectors, threshold = 1.00D-03
 ---------------------------------------------------------------
 (dimension of paired reduced space:   86)
 RSP solution vector no.    1; norm of residual   5.35D-04
 RSP solution vector no.    2; norm of residual   5.36D-04
 RSP solution vector no.    3; norm of residual   5.39D-04
 RSP solution vector no.    4; norm of residual   5.45D-04
 RSP solution vector no.    5; norm of residual   5.54D-04
 RSP solution vector no.    6; norm of residual   5.67D-04
 RSP solution vector no.    7; norm of residual   5.87D-04
 RSP solution vector no.    8; norm of residual   6.17D-04
 RSP solution vector no.    9; norm of residual   6.61D-04

 *** RSPCTL MICROITERATIONS CONVERGED

@ QRLRVE: SINGLET SOLUTION FOR SYMMETRY    1  ( A  )    LABEL   ZDIPLEN     FREQUENCY   0.000000D+00

@ QRLRVE:  << XDIPLEN  ; ZDIPLEN  >> (   0.00000):   -3.026623411595E-15

@ QRLRVE:  << YDIPLEN  ; ZDIPLEN  >> (   0.00000):    9.567363967497E-16

@ QRLRVE:  << ZDIPLEN  ; ZDIPLEN  >> (   0.00000):     21.4628417104    

@ QRLRVE: SINGLET SOLUTION FOR SYMMETRY    1  ( A  )    LABEL   ZDIPLEN     FREQUENCY   0.634456D-02

@ QRLRVE:  << XDIPLEN  ; ZDIPLEN  >> (   0.00634):   -2.814704440307E-15

@ QRLRVE:  << YDIPLEN  ; ZDIPLEN  >> (   0.00634):    1.238613418145E-15

@ QRLRVE:  << ZDIPLEN  ; ZDIPLEN  >> (   0.00634):     21.4655920814    

@ QRLRVE: SINGLET SOLUTION FOR SYMMETRY    1  ( A  )    LABEL   ZDIPLEN     FREQUENCY   0.126891D-01

@ QRLRVE:  << XDIPLEN  ; ZDIPLEN  >> (   0.01269):   -2.167004059529E-15

@ QRLRVE:  << YDIPLEN  ; ZDIPLEN  >> (   0.01269):    2.100615460781E-15

@ QRLRVE:  << ZDIPLEN  ; ZDIPLEN  >> (   0.01269):     21.4738593919    

@ QRLRVE: SINGLET SOLUTION FOR SYMMETRY    1  ( A  )    LABEL   ZDIPLEN     FREQUENCY   0.190337D-01

@ QRLRVE:  << XDIPLEN  ; ZDIPLEN  >> (   0.01903):   -1.046220246020E-15

@ QRLRVE:  << YDIPLEN  ; ZDIPLEN  >> (   0.01903):    3.593890895707E-15

@ QRLRVE:  << ZDIPLEN  ; ZDIPLEN  >> (   0.01903):     21.4876935422    

@ QRLRVE: SINGLET SOLUTION FOR SYMMETRY    1  ( A  )    LABEL   ZDIPLEN     FREQUENCY   0.253783D-01

@ QRLRVE:  << XDIPLEN  ; ZDIPLEN  >> (   0.02538):    6.150662674905E-16

@ QRLRVE:  << YDIPLEN  ; ZDIPLEN  >> (   0.02538):    5.810948288018E-15

@ QRLRVE:  << ZDIPLEN  ; ZDIPLEN  >> (   0.02538):     21.5071823533    

@ QRLRVE: SINGLET SOLUTION FOR SYMMETRY    1  ( A  )    LABEL   ZDIPLEN     FREQUENCY   0.317228D-01

[...]
@ B-freq = 0.019034  C-freq = 0.019034     beta(Y;Z,Y) =     -0.00000000
@ B-freq = 0.019034  C-freq = 0.019034     beta(Z;Z,Y) =     36.99177094
@ B-freq = 0.025378  C-freq = 0.019034     beta(X;Z,Y) =     -0.00000000
@ B-freq = 0.025378  C-freq = 0.019034     beta(Y;Z,Y) =     -0.00000000
@ B-freq = 0.025378  C-freq = 0.019034     beta(Z;Z,Y) =     37.01584571
@ B-freq = 0.000000  C-freq = 0.025378     beta(X;X,Y) = beta(X,Y,X)
@ B-freq = 0.000000  C-freq = 0.025378     beta(Y;X,Y) = beta(Y,Y,X)
@ B-freq = 0.000000  C-freq = 0.025378     beta(Z;X,Y) = beta(Z,Y,X)
@ B-freq = 0.006345  C-freq = 0.025378     beta(X;X,Y) = beta(X,Y,X)
@ B-freq = 0.006345  C-freq = 0.025378     beta(Y;X,Y) = beta(Y,Y,X)
@ B-freq = 0.006345  C-freq = 0.025378     beta(Z;X,Y) = beta(Z,Y,X)
@ B-freq = 0.012689  C-freq = 0.025378     beta(X;X,Y) = beta(X,Y,X)
@ B-freq = 0.012689  C-freq = 0.025378     beta(Y;X,Y) = beta(Y,Y,X)
@ B-freq = 0.012689  C-freq = 0.025378     beta(Z;X,Y) = beta(Z,Y,X)
@ B-freq = 0.019034  C-freq = 0.025378     beta(X;X,Y) = beta(X,Y,X)
@ B-freq = 0.019034  C-freq = 0.025378     beta(Y;X,Y) = beta(Y,Y,X)
@ B-freq = 0.019034  C-freq = 0.025378     beta(Z;X,Y) = beta(Z,Y,X)
@ B-freq = 0.025378  C-freq = 0.025378     beta(X;X,Y) = beta(X,Y,X)
@ B-freq = 0.025378  C-freq = 0.025378     beta(Y;X,Y) = beta(Y,Y,X)
@ B-freq = 0.025378  C-freq = 0.025378     beta(Z;X,Y) = beta(Z,Y,X)
@ B-freq = 0.000000  C-freq = 0.025378     beta(X;Y,Y) = beta(X,Y,Y)
@ B-freq = 0.000000  C-freq = 0.025378     beta(Y;Y,Y) = beta(Y,Y,Y)
@ B-freq = 0.000000  C-freq = 0.025378     beta(Z;Y,Y) = beta(Z,Y,Y)
@ B-freq = 0.006345  C-freq = 0.025378     beta(X;Y,Y) = beta(X,Y,Y)
@ B-freq = 0.006345  C-freq = 0.025378     beta(Y;Y,Y) = beta(Y,Y,Y)
@ B-freq = 0.006345  C-freq = 0.025378     beta(Z;Y,Y) = beta(Z,Y,Y)
@ B-freq = 0.012689  C-freq = 0.025378     beta(X;Y,Y) = beta(X,Y,Y)
@ B-freq = 0.012689  C-freq = 0.025378     beta(Y;Y,Y) = beta(Y,Y,Y)
@ B-freq = 0.012689  C-freq = 0.025378     beta(Z;Y,Y) = beta(Z,Y,Y)
@ B-freq = 0.019034  C-freq = 0.025378     beta(X;Y,Y) = beta(X,Y,Y)
@ B-freq = 0.019034  C-freq = 0.025378     beta(Y;Y,Y) = beta(Y,Y,Y)
@ B-freq = 0.019034  C-freq = 0.025378     beta(Z;Y,Y) = beta(Z,Y,Y)
@ B-freq = 0.025378  C-freq = 0.025378     beta(X;Y,Y) =      1.22985309
@ B-freq = 0.025378  C-freq = 0.025378     beta(Y;Y,Y) =     60.40341520
@ B-freq = 0.025378  C-freq = 0.025378     beta(Z;Y,Y) =     -0.00000000
@ B-freq = 0.000000  C-freq = 0.025378     beta(X;Z,Y) =     -0.00000000
@ B-freq = 0.000000  C-freq = 0.025378     beta(Y;Z,Y) =     -0.00000000
@ B-freq = 0.000000  C-freq = 0.025378     beta(Z;Z,Y) =     37.14486852
@ B-freq = 0.006345  C-freq = 0.025378     beta(X;Z,Y) =     -0.00000000
@ B-freq = 0.006345  C-freq = 0.025378     beta(Y;Z,Y) =     -0.00000000
@ B-freq = 0.006345  C-freq = 0.025378     beta(Z;Z,Y) =     37.16771194
@ B-freq = 0.012689  C-freq = 0.025378     beta(X;Z,Y) =     -0.00000000
@ B-freq = 0.012689  C-freq = 0.025378     beta(Y;Z,Y) =     -0.00000000
@ B-freq = 0.012689  C-freq = 0.025378     beta(Z;Z,Y) =     37.19427854
@ B-freq = 0.019034  C-freq = 0.025378     beta(X;Z,Y) =     -0.00000000
@ B-freq = 0.019034  C-freq = 0.025378     beta(Y;Z,Y) =     -0.00000000
@ B-freq = 0.019034  C-freq = 0.025378     beta(Z;Z,Y) =     37.21783162
@ B-freq = 0.025378  C-freq = 0.025378     beta(X;Z,Y) =     -0.00000000
@ B-freq = 0.025378  C-freq = 0.025378     beta(Y;Z,Y) =     -0.00000000
@ B-freq = 0.025378  C-freq = 0.025378     beta(Z;Z,Y) =     37.22727564
@ B-freq = 0.000000  C-freq = 0.000000     beta(X;X,Z) = beta(Z,X,X)
@ B-freq = 0.000000  C-freq = 0.000000     beta(Y;X,Z) = beta(Z,Y,X)
@ B-freq = 0.000000  C-freq = 0.000000     beta(Z;X,Z) = beta(Z,Z,X)
@ B-freq = 0.006345  C-freq = 0.000000     beta(X;X,Z) = beta(X,Z,X)
@ B-freq = 0.006345  C-freq = 0.000000     beta(Y;X,Z) = beta(Y,Z,X)
@ B-freq = 0.006345  C-freq = 0.000000     beta(Z;X,Z) = beta(Z,Z,X)
@ B-freq = 0.012689  C-freq = 0.000000     beta(X;X,Z) = beta(X,Z,X)
@ B-freq = 0.012689  C-freq = 0.000000     beta(Y;X,Z) = beta(Y,Z,X)
@ B-freq = 0.012689  C-freq = 0.000000     beta(Z;X,Z) = beta(Z,Z,X)
@ B-freq = 0.019034  C-freq = 0.000000     beta(X;X,Z) = beta(X,Z,X)
@ B-freq = 0.019034  C-freq = 0.000000     beta(Y;X,Z) = beta(Y,Z,X)
@ B-freq = 0.019034  C-freq = 0.000000     beta(Z;X,Z) = beta(Z,Z,X)
@ B-freq = 0.025378  C-freq = 0.000000     beta(X;X,Z) = beta(X,Z,X)
@ B-freq = 0.025378  C-freq = 0.000000     beta(Y;X,Z) = beta(Y,Z,X)
@ B-freq = 0.025378  C-freq = 0.000000     beta(Z;X,Z) = beta(Z,Z,X)
@ B-freq = 0.000000  C-freq = 0.000000     beta(X;Y,Z) = beta(Z,Y,X)
@ B-freq = 0.000000  C-freq = 0.000000     beta(Y;Y,Z) = beta(Z,Y,Y)
@ B-freq = 0.000000  C-freq = 0.000000     beta(Z;Y,Z) = beta(Z,Z,Y)
@ B-freq = 0.006345  C-freq = 0.000000     beta(X;Y,Z) = beta(X,Z,Y)
@ B-freq = 0.006345  C-freq = 0.000000     beta(Y;Y,Z) = beta(Y,Z,Y)
@ B-freq = 0.006345  C-freq = 0.000000     beta(Z;Y,Z) = beta(Z,Z,Y)
@ B-freq = 0.012689  C-freq = 0.000000     beta(X;Y,Z) = beta(X,Z,Y)
@ B-freq = 0.012689  C-freq = 0.000000     beta(Y;Y,Z) = beta(Y,Z,Y)
@ B-freq = 0.012689  C-freq = 0.000000     beta(Z;Y,Z) = beta(Z,Z,Y)
@ B-freq = 0.019034  C-freq = 0.000000     beta(X;Y,Z) = beta(X,Z,Y)
@ B-freq = 0.019034  C-freq = 0.000000     beta(Y;Y,Z) = beta(Y,Z,Y)
@ B-freq = 0.019034  C-freq = 0.000000     beta(Z;Y,Z) = beta(Z,Z,Y)
@ B-freq = 0.025378  C-freq = 0.000000     beta(X;Y,Z) = beta(X,Z,Y)
@ B-freq = 0.025378  C-freq = 0.000000     beta(Y;Y,Z) = beta(Y,Z,Y)
@ B-freq = 0.025378  C-freq = 0.000000     beta(Z;Y,Z) = beta(Z,Z,Y)
@ B-freq = 0.000000  C-freq = 0.000000     beta(X;Z,Z) = beta(Z,Z,X)
@ B-freq = 0.000000  C-freq = 0.000000     beta(Y;Z,Z) = beta(Z,Z,Y)
@ B-freq = 0.000000  C-freq = 0.000000     beta(X;Z,Z) =     19.35332451
@ B-freq = 0.000000  C-freq = 0.000000     beta(Y;Z,Z) =     36.61832024
@ B-freq = 0.000000  C-freq = 0.000000     beta(Z;Z,Z) =      0.00000000
@ B-freq = 0.006345  C-freq = 0.000000     beta(X;Z,Z) =     19.36934138
@ B-freq = 0.006345  C-freq = 0.000000     beta(Y;Z,Z) =     36.65107645
@ B-freq = 0.006345  C-freq = 0.000000     beta(Z;Z,Z) =      0.00000000
@ B-freq = 0.012689  C-freq = 0.000000     beta(X;Z,Z) =     19.41747241
@ B-freq = 0.012689  C-freq = 0.000000     beta(Y;Z,Z) =     36.74947651
@ B-freq = 0.012689  C-freq = 0.000000     beta(Z;Z,Z) =      0.00000000
@ B-freq = 0.019034  C-freq = 0.000000     beta(X;Z,Z) =     19.49795231
@ B-freq = 0.019034  C-freq = 0.000000     beta(Y;Z,Z) =     36.91389330
@ B-freq = 0.019034  C-freq = 0.000000     beta(Z;Z,Z) =      0.00000000
@ B-freq = 0.025378  C-freq = 0.000000     beta(X;Z,Z) =     19.61114778
@ B-freq = 0.025378  C-freq = 0.000000     beta(Y;Z,Z) =     37.14487008
@ B-freq = 0.025378  C-freq = 0.000000     beta(Z;Z,Z) =      0.00000000
@ B-freq = 0.000000  C-freq = 0.006345     beta(X;X,Z) = beta(X,Z,X)
@ B-freq = 0.000000  C-freq = 0.006345     beta(Y;X,Z) = beta(Y,Z,X)
@ B-freq = 0.000000  C-freq = 0.006345     beta(Z;X,Z) = beta(Z,Z,X)
@ B-freq = 0.006345  C-freq = 0.006345     beta(X;X,Z) = beta(X,Z,X)
@ B-freq = 0.006345  C-freq = 0.006345     beta(Y;X,Z) = beta(Y,Z,X)
@ B-freq = 0.006345  C-freq = 0.006345     beta(Z;X,Z) = beta(Z,Z,X)
@ B-freq = 0.012689  C-freq = 0.006345     beta(X;X,Z) = beta(X,Z,X)
@ B-freq = 0.012689  C-freq = 0.006345     beta(Y;X,Z) = beta(Y,Z,X)
@ B-freq = 0.012689  C-freq = 0.006345     beta(Z;X,Z) = beta(Z,Z,X)
@ B-freq = 0.019034  C-freq = 0.006345     beta(X;X,Z) = beta(X,Z,X)
@ B-freq = 0.019034  C-freq = 0.006345     beta(Y;X,Z) = beta(Y,Z,X)
@ B-freq = 0.019034  C-freq = 0.006345     beta(Z;X,Z) = beta(Z,Z,X)
@ B-freq = 0.025378  C-freq = 0.006345     beta(X;X,Z) = beta(X,Z,X)
@ B-freq = 0.025378  C-freq = 0.006345     beta(Y;X,Z) = beta(Y,Z,X)
@ B-freq = 0.025378  C-freq = 0.006345     beta(Z;X,Z) = beta(Z,Z,X)
@ B-freq = 0.000000  C-freq = 0.006345     beta(X;Y,Z) = beta(X,Z,Y)
@ B-freq = 0.000000  C-freq = 0.006345     beta(Y;Y,Z) = beta(Y,Z,Y)
@ B-freq = 0.000000  C-freq = 0.006345     beta(Z;Y,Z) = beta(Z,Z,Y)
@ B-freq = 0.006345  C-freq = 0.006345     beta(X;Y,Z) = beta(X,Z,Y)
@ B-freq = 0.006345  C-freq = 0.006345     beta(Y;Y,Z) = beta(Y,Z,Y)
@ B-freq = 0.006345  C-freq = 0.006345     beta(Z;Y,Z) = beta(Z,Z,Y)
@ B-freq = 0.012689  C-freq = 0.006345     beta(X;Y,Z) = beta(X,Z,Y)
@ B-freq = 0.012689  C-freq = 0.006345     beta(Y;Y,Z) = beta(Y,Z,Y)
@ B-freq = 0.012689  C-freq = 0.006345     beta(Z;Y,Z) = beta(Z,Z,Y)
@ B-freq = 0.019034  C-freq = 0.006345     beta(X;Y,Z) = beta(X,Z,Y)
@ B-freq = 0.019034  C-freq = 0.006345     beta(Y;Y,Z) = beta(Y,Z,Y)
@ B-freq = 0.019034  C-freq = 0.006345     beta(Z;Y,Z) = beta(Z,Z,Y)
@ B-freq = 0.025378  C-freq = 0.006345     beta(X;Y,Z) = beta(X,Z,Y)
@ B-freq = 0.025378  C-freq = 0.006345     beta(Y;Y,Z) = beta(Y,Z,Y)
@ B-freq = 0.025378  C-freq = 0.006345     beta(Z;Y,Z) = beta(Z,Z,Y)
@ B-freq = 0.000000  C-freq = 0.006345     beta(X;Z,Z) = beta(X,Z,Z)
@ B-freq = 0.000000  C-freq = 0.006345     beta(Y;Z,Z) = beta(Y,Z,Z)
@ B-freq = 0.000000  C-freq = 0.006345     beta(Z;Z,Z) = beta(Z,Z,Z)
@ B-freq = 0.006345  C-freq = 0.006345     beta(X;Z,Z) =     19.41364304
@ B-freq = 0.006345  C-freq = 0.006345     beta(Y;Z,Z) =     36.74374075
@ B-freq = 0.006345  C-freq = 0.006345     beta(Z;Z,Z) =      0.00000000
@ B-freq = 0.012689  C-freq = 0.006345     beta(X;Z,Z) =     19.49046189
@ B-freq = 0.012689  C-freq = 0.006345     beta(Y;Z,Z) =     36.90295856
@ B-freq = 0.012689  C-freq = 0.006345     beta(Z;Z,Z) =      0.00000000
@ B-freq = 0.019034  C-freq = 0.006345     beta(X;Z,Z) =     19.60032351
@ B-freq = 0.019034  C-freq = 0.006345     beta(Y;Z,Z) =     37.12975434
@ B-freq = 0.019034  C-freq = 0.006345     beta(Z;Z,Z) =      0.00000000
@ B-freq = 0.025378  C-freq = 0.006345     beta(X;Z,Z) =     19.74390320
@ B-freq = 0.025378  C-freq = 0.006345     beta(Y;Z,Z) =     37.42536081
@ B-freq = 0.025378  C-freq = 0.006345     beta(Z;Z,Z) =      0.00000000
@ B-freq = 0.000000  C-freq = 0.012689     beta(X;X,Z) = beta(X,Z,X)
@ B-freq = 0.000000  C-freq = 0.012689     beta(Y;X,Z) = beta(Y,Z,X)
@ B-freq = 0.000000  C-freq = 0.012689     beta(Z;X,Z) = beta(Z,Z,X)
@ B-freq = 0.006345  C-freq = 0.012689     beta(X;X,Z) = beta(X,Z,X)
@ B-freq = 0.006345  C-freq = 0.012689     beta(Y;X,Z) = beta(Y,Z,X)
@ B-freq = 0.006345  C-freq = 0.012689     beta(Z;X,Z) = beta(Z,Z,X)
@ B-freq = 0.012689  C-freq = 0.012689     beta(X;X,Z) = beta(X,Z,X)
@ B-freq = 0.012689  C-freq = 0.012689     beta(Y;X,Z) = beta(Y,Z,X)
@ B-freq = 0.012689  C-freq = 0.012689     beta(Z;X,Z) = beta(Z,Z,X)
@ B-freq = 0.019034  C-freq = 0.012689     beta(X;X,Z) = beta(X,Z,X)
@ B-freq = 0.019034  C-freq = 0.012689     beta(Y;X,Z) = beta(Y,Z,X)
@ B-freq = 0.019034  C-freq = 0.012689     beta(Z;X,Z) = beta(Z,Z,X)
@ B-freq = 0.025378  C-freq = 0.012689     beta(X;X,Z) = beta(X,Z,X)
@ B-freq = 0.025378  C-freq = 0.012689     beta(Y;X,Z) = beta(Y,Z,X)
@ B-freq = 0.025378  C-freq = 0.012689     beta(Z;X,Z) = beta(Z,Z,X)
@ B-freq = 0.000000  C-freq = 0.012689     beta(X;Y,Z) = beta(X,Z,Y)
@ B-freq = 0.000000  C-freq = 0.012689     beta(Y;Y,Z) = beta(Y,Z,Y)
@ B-freq = 0.000000  C-freq = 0.012689     beta(Z;Y,Z) = beta(Z,Z,Y)
@ B-freq = 0.006345  C-freq = 0.012689     beta(X;Y,Z) = beta(X,Z,Y)
@ B-freq = 0.006345  C-freq = 0.012689     beta(Y;Y,Z) = beta(Y,Z,Y)
@ B-freq = 0.006345  C-freq = 0.012689     beta(Z;Y,Z) = beta(Z,Z,Y)
@ B-freq = 0.012689  C-freq = 0.012689     beta(X;Y,Z) = beta(X,Z,Y)
@ B-freq = 0.012689  C-freq = 0.012689     beta(Y;Y,Z) = beta(Y,Z,Y)
@ B-freq = 0.012689  C-freq = 0.012689     beta(Z;Y,Z) = beta(Z,Z,Y)
@ B-freq = 0.019034  C-freq = 0.012689     beta(X;Y,Z) = beta(X,Z,Y)
@ B-freq = 0.019034  C-freq = 0.012689     beta(Y;Y,Z) = beta(Y,Z,Y)
@ B-freq = 0.019034  C-freq = 0.012689     beta(Z;Y,Z) = beta(Z,Z,Y)
@ B-freq = 0.025378  C-freq = 0.012689     beta(X;Y,Z) = beta(X,Z,Y)
@ B-freq = 0.025378  C-freq = 0.012689     beta(Y;Y,Z) = beta(Y,Z,Y)
@ B-freq = 0.025378  C-freq = 0.012689     beta(Z;Y,Z) = beta(Z,Z,Y)
@ B-freq = 0.000000  C-freq = 0.012689     beta(X;Z,Z) = beta(X,Z,Z)
@ B-freq = 0.000000  C-freq = 0.012689     beta(Y;Z,Z) = beta(Y,Z,Z)
@ B-freq = 0.000000  C-freq = 0.012689     beta(Z;Z,Z) = beta(Z,Z,Z)
@ B-freq = 0.006345  C-freq = 0.012689     beta(X;Z,Z) = beta(X,Z,Z)
@ B-freq = 0.006345  C-freq = 0.012689     beta(Y;Z,Z) = beta(Y,Z,Z)
@ B-freq = 0.006345  C-freq = 0.012689     beta(Z;Z,Z) = beta(Z,Z,Z)
@ B-freq = 0.012689  C-freq = 0.012689     beta(X;Z,Z) =     19.59662823
@ B-freq = 0.012689  C-freq = 0.012689     beta(Y;Z,Z) =     37.12449336
@ B-freq = 0.012689  C-freq = 0.012689     beta(Z;Z,Z) =      0.00000000
@ B-freq = 0.019034  C-freq = 0.012689     beta(X;Z,Z) =     19.73680369
@ B-freq = 0.019034  C-freq = 0.012689     beta(Y;Z,Z) =     37.41579462
@ B-freq = 0.019034  C-freq = 0.012689     beta(Z;Z,Z) =      0.00000000
@ B-freq = 0.025378  C-freq = 0.012689     beta(X;Z,Z) =     19.91199481
@ B-freq = 0.025378  C-freq = 0.012689     beta(Y;Z,Z) =     37.77883853
@ B-freq = 0.025378  C-freq = 0.012689     beta(Z;Z,Z) =      0.00000000
@ B-freq = 0.000000  C-freq = 0.019034     beta(X;X,Z) = beta(X,Z,X)
@ B-freq = 0.000000  C-freq = 0.019034     beta(Y;X,Z) = beta(Y,Z,X)
@ B-freq = 0.000000  C-freq = 0.019034     beta(Z;X,Z) = beta(Z,Z,X)
@ B-freq = 0.006345  C-freq = 0.019034     beta(X;X,Z) = beta(X,Z,X)
@ B-freq = 0.006345  C-freq = 0.019034     beta(Y;X,Z) = beta(Y,Z,X)
@ B-freq = 0.006345  C-freq = 0.019034     beta(Z;X,Z) = beta(Z,Z,X)
@ B-freq = 0.012689  C-freq = 0.019034     beta(X;X,Z) = beta(X,Z,X)
@ B-freq = 0.012689  C-freq = 0.019034     beta(Y;X,Z) = beta(Y,Z,X)
@ B-freq = 0.012689  C-freq = 0.019034     beta(Z;X,Z) = beta(Z,Z,X)
@ B-freq = 0.019034  C-freq = 0.019034     beta(X;X,Z) = beta(X,Z,X)
@ B-freq = 0.019034  C-freq = 0.019034     beta(Y;X,Z) = beta(Y,Z,X)
@ B-freq = 0.019034  C-freq = 0.019034     beta(Z;X,Z) = beta(Z,Z,X)
@ B-freq = 0.025378  C-freq = 0.019034     beta(X;X,Z) = beta(X,Z,X)
@ B-freq = 0.025378  C-freq = 0.019034     beta(Y;X,Z) = beta(Y,Z,X)
@ B-freq = 0.025378  C-freq = 0.019034     beta(Z;X,Z) = beta(Z,Z,X)
@ B-freq = 0.000000  C-freq = 0.019034     beta(X;Y,Z) = beta(X,Z,Y)
@ B-freq = 0.000000  C-freq = 0.019034     beta(Y;Y,Z) = beta(Y,Z,Y)
@ B-freq = 0.000000  C-freq = 0.019034     beta(Z;Y,Z) = beta(Z,Z,Y)
@ B-freq = 0.006345  C-freq = 0.019034     beta(X;Y,Z) = beta(X,Z,Y)
@ B-freq = 0.006345  C-freq = 0.019034     beta(Y;Y,Z) = beta(Y,Z,Y)
@ B-freq = 0.006345  C-freq = 0.019034     beta(Z;Y,Z) = beta(Z,Z,Y)
@ B-freq = 0.012689  C-freq = 0.019034     beta(X;Y,Z) = beta(X,Z,Y)
@ B-freq = 0.012689  C-freq = 0.019034     beta(Y;Y,Z) = beta(Y,Z,Y)
@ B-freq = 0.012689  C-freq = 0.019034     beta(Z;Y,Z) = beta(Z,Z,Y)
@ B-freq = 0.019034  C-freq = 0.019034     beta(X;Y,Z) = beta(X,Z,Y)
@ B-freq = 0.019034  C-freq = 0.019034     beta(Y;Y,Z) = beta(Y,Z,Y)
@ B-freq = 0.019034  C-freq = 0.019034     beta(Z;Y,Z) = beta(Z,Z,Y)
@ B-freq = 0.025378  C-freq = 0.019034     beta(X;Y,Z) = beta(X,Z,Y)
@ B-freq = 0.025378  C-freq = 0.019034     beta(Y;Y,Z) = beta(Y,Z,Y)
@ B-freq = 0.025378  C-freq = 0.019034     beta(Z;Y,Z) = beta(Z,Z,Y)
@ B-freq = 0.000000  C-freq = 0.019034     beta(X;Z,Z) = beta(X,Z,Z)
@ B-freq = 0.000000  C-freq = 0.019034     beta(Y;Z,Z) = beta(Y,Z,Z)
@ B-freq = 0.000000  C-freq = 0.019034     beta(Z;Z,Z) = beta(Z,Z,Z)
@ B-freq = 0.006345  C-freq = 0.019034     beta(X;Z,Z) = beta(X,Z,Z)
@ B-freq = 0.006345  C-freq = 0.019034     beta(Y;Z,Z) = beta(Y,Z,Z)
@ B-freq = 0.006345  C-freq = 0.019034     beta(Z;Z,Z) = beta(Z,Z,Z)
@ B-freq = 0.012689  C-freq = 0.019034     beta(X;Z,Z) = beta(X,Z,Z)
@ B-freq = 0.012689  C-freq = 0.019034     beta(Y;Z,Z) = beta(Y,Z,Z)
@ B-freq = 0.012689  C-freq = 0.019034     beta(Z;Z,Z) = beta(Z,Z,Z)
@ B-freq = 0.019034  C-freq = 0.019034     beta(X;Z,Z) =     19.90855554
@ B-freq = 0.019034  C-freq = 0.019034     beta(Y;Z,Z) =     37.77447424
@ B-freq = 0.019034  C-freq = 0.019034     beta(Z;Z,Z) =      0.00000000
@ B-freq = 0.025378  C-freq = 0.019034     beta(X;Z,Z) =     20.11694883
@ B-freq = 0.025378  C-freq = 0.019034     beta(Y;Z,Z) =     38.20858939
@ B-freq = 0.025378  C-freq = 0.019034     beta(Z;Z,Z) =      0.00000000
@ B-freq = 0.000000  C-freq = 0.025378     beta(X;X,Z) = beta(X,Z,X)
@ B-freq = 0.000000  C-freq = 0.025378     beta(Y;X,Z) = beta(Y,Z,X)
@ B-freq = 0.000000  C-freq = 0.025378     beta(Z;X,Z) = beta(Z,Z,X)
@ B-freq = 0.006345  C-freq = 0.025378     beta(X;X,Z) = beta(X,Z,X)
@ B-freq = 0.006345  C-freq = 0.025378     beta(Y;X,Z) = beta(Y,Z,X)
@ B-freq = 0.006345  C-freq = 0.025378     beta(Z;X,Z) = beta(Z,Z,X)
@ B-freq = 0.012689  C-freq = 0.025378     beta(X;X,Z) = beta(X,Z,X)
@ B-freq = 0.012689  C-freq = 0.025378     beta(Y;X,Z) = beta(Y,Z,X)
@ B-freq = 0.012689  C-freq = 0.025378     beta(Z;X,Z) = beta(Z,Z,X)
@ B-freq = 0.019034  C-freq = 0.025378     beta(X;X,Z) = beta(X,Z,X)
@ B-freq = 0.019034  C-freq = 0.025378     beta(Y;X,Z) = beta(Y,Z,X)
@ B-freq = 0.019034  C-freq = 0.025378     beta(Z;X,Z) = beta(Z,Z,X)
@ B-freq = 0.025378  C-freq = 0.025378     beta(X;X,Z) = beta(X,Z,X)
@ B-freq = 0.025378  C-freq = 0.025378     beta(Y;X,Z) = beta(Y,Z,X)
@ B-freq = 0.025378  C-freq = 0.025378     beta(Z;X,Z) = beta(Z,Z,X)
@ B-freq = 0.000000  C-freq = 0.025378     beta(X;Y,Z) = beta(X,Z,Y)
@ B-freq = 0.000000  C-freq = 0.025378     beta(Y;Y,Z) = beta(Y,Z,Y)
@ B-freq = 0.000000  C-freq = 0.025378     beta(Z;Y,Z) = beta(Z,Z,Y)
@ B-freq = 0.006345  C-freq = 0.025378     beta(X;Y,Z) = beta(X,Z,Y)
@ B-freq = 0.006345  C-freq = 0.025378     beta(Y;Y,Z) = beta(Y,Z,Y)
@ B-freq = 0.006345  C-freq = 0.025378     beta(Z;Y,Z) = beta(Z,Z,Y)
@ B-freq = 0.012689  C-freq = 0.025378     beta(X;Y,Z) = beta(X,Z,Y)
@ B-freq = 0.012689  C-freq = 0.025378     beta(Y;Y,Z) = beta(Y,Z,Y)
@ B-freq = 0.012689  C-freq = 0.025378     beta(Z;Y,Z) = beta(Z,Z,Y)
@ B-freq = 0.019034  C-freq = 0.025378     beta(X;Y,Z) = beta(X,Z,Y)
@ B-freq = 0.019034  C-freq = 0.025378     beta(Y;Y,Z) = beta(Y,Z,Y)
@ B-freq = 0.019034  C-freq = 0.025378     beta(Z;Y,Z) = beta(Z,Z,Y)
@ B-freq = 0.025378  C-freq = 0.025378     beta(X;Y,Z) = beta(X,Z,Y)
@ B-freq = 0.025378  C-freq = 0.025378     beta(Y;Y,Z) = beta(Y,Z,Y)
@ B-freq = 0.025378  C-freq = 0.025378     beta(Z;Y,Z) = beta(Z,Z,Y)
@ B-freq = 0.000000  C-freq = 0.025378     beta(X;Z,Z) = beta(X,Z,Z)
@ B-freq = 0.000000  C-freq = 0.025378     beta(Y;Z,Z) = beta(Y,Z,Z)
@ B-freq = 0.000000  C-freq = 0.025378     beta(Z;Z,Z) = beta(Z,Z,Z)
@ B-freq = 0.006345  C-freq = 0.025378     beta(X;Z,Z) = beta(X,Z,Z)
@ B-freq = 0.006345  C-freq = 0.025378     beta(Y;Z,Z) = beta(Y,Z,Z)
@ B-freq = 0.006345  C-freq = 0.025378     beta(Z;Z,Z) = beta(Z,Z,Z)
@ B-freq = 0.012689  C-freq = 0.025378     beta(X;Z,Z) = beta(X,Z,Z)
@ B-freq = 0.012689  C-freq = 0.025378     beta(Y;Z,Z) = beta(Y,Z,Z)
@ B-freq = 0.012689  C-freq = 0.025378     beta(Z;Z,Z) = beta(Z,Z,Z)
@ B-freq = 0.019034  C-freq = 0.025378     beta(X;Z,Z) = beta(X,Z,Z)
@ B-freq = 0.019034  C-freq = 0.025378     beta(Y;Z,Z) = beta(Y,Z,Z)
@ B-freq = 0.019034  C-freq = 0.025378     beta(Z;Z,Z) = beta(Z,Z,Z)
@ B-freq = 0.025378  C-freq = 0.025378     beta(X;Z,Z) =     20.36054126
@ B-freq = 0.025378  C-freq = 0.025378     beta(Y;Z,Z) =     38.71833311
@ B-freq = 0.025378  C-freq = 0.025378     beta(Z;Z,Z) =      0.00000000

  Total CPU  time used in RESPONSE: 12 minutes 48 seconds
  Total wall time used in RESPONSE: 12 minutes 51 seconds


                   .-------------------------------------------.
                   | End of Dynamic Property Section (RESPONS) |
                   `-------------------------------------------'

  Total CPU  time used in DALTON: 13 minutes 33 seconds
  Total wall time used in DALTON: 13 minutes 36 seconds

 
     Date and time (Linux)  : Wed Sep 13 22:32:51 2023
     Host name              : sn-mem                                  
