

     ************************************************************************
     *************** Dalton - An Electronic Structure Program ***************
     ************************************************************************

    This is output from DALTON release Dalton2020.0 (2020)
         ( Web site: http://daltonprogram.org )

   ----------------------------------------------------------------------------

    NOTE:
     
    Dalton is an experimental code for the evaluation of molecular
    properties using (MC)SCF, DFT, CI, and CC wave functions.
    The authors accept no responsibility for the performance of
    the code or for the correctness of the results.
     
    The code (in whole or part) is provided under a licence and
    is not to be reproduced for further distribution without
    the written permission of the authors or their representatives.
     
    See the home page "http://daltonprogram.org" for further information.
     
    If results obtained with this code are published,
    the appropriate citations would be both of:
     
       K. Aidas, C. Angeli, K. L. Bak, V. Bakken, R. Bast,
       L. Boman, O. Christiansen, R. Cimiraglia, S. Coriani,
       P. Dahle, E. K. Dalskov, U. Ekstroem,
       T. Enevoldsen, J. J. Eriksen, P. Ettenhuber, B. Fernandez,
       L. Ferrighi, H. Fliegl, L. Frediani, K. Hald, A. Halkier,
       C. Haettig, H. Heiberg, T. Helgaker, A. C. Hennum,
       H. Hettema, E. Hjertenaes, S. Hoest, I.-M. Hoeyvik,
       M. F. Iozzi, B. Jansik, H. J. Aa. Jensen, D. Jonsson,
       P. Joergensen, J. Kauczor, S. Kirpekar,
       T. Kjaergaard, W. Klopper, S. Knecht, R. Kobayashi, H. Koch,
       J. Kongsted, A. Krapp, K. Kristensen, A. Ligabue,
       O. B. Lutnaes, J. I. Melo, K. V. Mikkelsen, R. H. Myhre,
       C. Neiss, C. B. Nielsen, P. Norman, J. Olsen,
       J. M. H. Olsen, A. Osted, M. J. Packer, F. Pawlowski,
       T. B. Pedersen, P. F. Provasi, S. Reine, Z. Rinkevicius,
       T. A. Ruden, K. Ruud, V. Rybkin, P. Salek, C. C. M. Samson,
       A. Sanchez de Meras, T. Saue, S. P. A. Sauer,
       B. Schimmelpfennig, K. Sneskov, A. H. Steindal,
       K. O. Sylvester-Hvid, P. R. Taylor, A. M. Teale,
       E. I. Tellgren, D. P. Tew, A. J. Thorvaldsen, L. Thoegersen,
       O. Vahtras, M. A. Watson, D. J. D. Wilson, M. Ziolkowski
       and H. Agren,
       "The Dalton quantum chemistry program system",
       WIREs Comput. Mol. Sci. 2014, 4:269–284 (doi: 10.1002/wcms.1172)
     
    and
     
       Dalton, a molecular electronic structure program,
       Release Dalton2020.0 (2020), see http://daltonprogram.org
   ----------------------------------------------------------------------------

    Authors in alphabetical order (Major contribution(s) in parenthesis):

  Kestutis Aidas,           Vilnius University,           Lithuania   (QM/MM)
  Celestino Angeli,         University of Ferrara,        Italy       (NEVPT2)
  Keld L. Bak,              UNI-C,                        Denmark     (AOSOPPA, non-adiabatic coupling, magnetic properties)
  Vebjoern Bakken,          University of Oslo,           Norway      (DALTON; geometry optimizer, symmetry detection)
  Radovan Bast,             UiT The Arctic U. of Norway,  Norway      (DALTON installation and execution frameworks)
  Pablo Baudin,             University of Valencia,       Spain       (Cholesky excitation energies)
  Linus Boman,              NTNU,                         Norway      (Cholesky decomposition and subsystems)
  Bruno N. Cabral Tenorio,  Technical Univ. of Denmark,   Denmark     (Lanczos-based CC methods)
  Ove Christiansen,         Aarhus University,            Denmark     (CC module)
  Renzo Cimiraglia,         University of Ferrara,        Italy       (NEVPT2)
  Sonia Coriani,            Technical Univ. of Denmark,   Denmark     (CC and RESPONS modules)
  Janusz Cukras,            University of Warsaw,         Poland      (MChD in RESPONS)
  Paal Dahle,               University of Oslo,           Norway      (Parallelization)
  Erik K. Dalskov,          UNI-C,                        Denmark     (SOPPA)
  Thomas Enevoldsen,        Univ. of Southern Denmark,    Denmark     (SOPPA)
  Janus J. Eriksen,         Aarhus University,            Denmark     (Polarizable embedding, TDA)
  Rasmus Faber,             Technical Univ. of Denmark,   Denmark     (Vib.avg. NMR w. SOPPA, parallel AO-SOPPA, CVS-CC and EOMCC)
  Tobias Fahleson,          KTH Stockholm,                Sweden      (Damped cubic response)
  Berta Fernandez,          U. of Santiago de Compostela, Spain       (Doublet spin, ESR in RESPONS)
  Lara Ferrighi,            Aarhus University,            Denmark     (PCM Cubic response)
  Heike Fliegl,             University of Oslo,           Norway      (CCSD(R12))
  Luca Frediani,            UiT The Arctic U. of Norway,  Norway      (PCM)
  Emmanuel Fromager,        Univ. Strasbourg,             France      (MC-srDFT)
  Bin Gao,                  UiT The Arctic U. of Norway,  Norway      (Gen1Int library)
  Andre S. P. Gomes,        CNRS/Universite de Lille,     France      (Frozen density embedding)
  Christof Haettig,         Ruhr-University Bochum,       Germany     (CC module)
  Kasper Hald,              Aarhus University,            Denmark     (CC module)
  Asger Halkier,            Aarhus University,            Denmark     (CC module)
  Frederik Beyer Hansen,    University of Copenhagen,     Denmark     (Parallel AO-SOPPA)
  Erik D. Hedegaard,        Univ. of Southern Denmark,    Denmark     (Polarizable embedding, QM/MM, and MC-srDFT)
  Hanne Heiberg,            University of Oslo,           Norway      (Geometry analysis, selected one-electron integrals)
  Trygve Helgaker,          University of Oslo,           Norway      (DALTON; ABACUS, ERI, DFT modules, London, and much more)
  Alf Christian Hennum,     University of Oslo,           Norway      (Parity violation)
  Hinne Hettema,            University of Auckland,       New Zealand (Quadratic response in RESPONS; SIRIUS supersymmetry)
  Eirik Hjertenaes,         NTNU,                         Norway      (Cholesky decomposition)
  Pi A. B. Haase,           University of Copenhagen,     Denmark     (Triplet AO-SOPPA)
  Maria Francesca Iozzi,    University of Oslo,           Norway      (RPA)
  Christoph Jacob           TU Braunschweig               Germany     (Frozen density embedding)
  Brano Jansik              Technical Univ. of Ostrava    Czech Rep.  (DFT cubic response)
  Hans Joergen Aa. Jensen,  Univ. of Southern Denmark,    Denmark     (DALTON; SIRIUS, RESPONS, ABACUS, MC-srDFT, and much more)
  Dan Jonsson,              UiT The Arctic U. of Norway,  Norway      (Cubic response in RESPONS module)
  Poul Joergensen,          Aarhus University,            Denmark     (RESPONS, ABACUS, and CC modules)
  Maciej Kaminski,          University of Warsaw,         Poland      (CPPh in RESPONS)
  Joanna Kauczor,           Linkoeping University,        Sweden      (Complex polarization propagator (CPP) module)
  Sheela Kirpekar,          Univ. of Southern Denmark,    Denmark     (Mass-velocity & Darwin integrals)
  Erik Kjellgren,           Univ. of Southern Denmark,    Denmark     (MC-srDFT)
  Wim Klopper,              KIT Karlsruhe,                Germany     (R12 code in CC, SIRIUS, and ABACUS modules)
  Stefan Knecht,            ETH Zurich,                   Switzerland (Parallel CI and MCSCF, MC-srDFT)
  Rika Kobayashi,           Australian National Univ.,    Australia   (DIIS in CC, London in MCSCF)
  Henrik Koch,              NTNU,                         Norway      (CC module, Cholesky decomposition)
  Jacob Kongsted,           Univ. of Southern Denmark,    Denmark     (Polarizable embedding, polarizable density embedding, QM/MM)
  Andrea Ligabue,           University of Modena,         Italy       (CTOCD, AOSOPPA)
  Nanna H. List             Univ. of Southern Denmark,    Denmark     (Polarizable embedding)
  Ola B. Lutnaes,           University of Oslo,           Norway      (DFT Hessian)
  Juan I. Melo,             University of Buenos Aires,   Argentina   (LRESC, Relativistic Effects on NMR Shieldings)
  Kurt V. Mikkelsen,        University of Copenhagen,     Denmark     (MC-SCRF and QM/MM)
  Rolf H. Myhre,            NTNU,                         Norway      (Subsystems and CC3)
  Christian Neiss,          Univ. Erlangen-Nuernberg,     Germany     (CCSD(R12))
  Christian B. Nielsen,     University of Copenhagen,     Denmark     (QM/MM)
  Patrick Norman,           KTH Stockholm,                Sweden      (Cubic response and complex frequency response in RESPONS)
  Jeppe Olsen,              Aarhus University,            Denmark     (SIRIUS CI/density modules)
  Jogvan Magnus H. Olsen,   Aarhus University,            Denmark     (Polarizable embedding and polarizable density embedding)
  Anders Osted,             Copenhagen University,        Denmark     (QM/MM)
  Martin J. Packer,         University of Sheffield,      UK          (SOPPA)
  Filip Pawlowski,          Kazimierz Wielki University,  Poland      (CC3)
  Morten N. Pedersen,       Univ. of Southern Denmark,    Denmark     (Polarizable embedding)
  Thomas B. Pedersen,       University of Oslo,           Norway      (Cholesky decomposition)
  Patricio F. Provasi,      University of Northeastern,   Argentina   (Analysis of coupling constants in localized orbitals)
  Peter Reinholdt,          Univ. of Southern Denmark,    Denmark     (Polarizable embedding and polarizable density embedding)
  Zilvinas Rinkevicius,     KTH Stockholm,                Sweden      (open-shell DFT, ESR)
  Elias Rudberg,            KTH Stockholm,                Sweden      (DFT grid and basis info)
  Torgeir A. Ruden,         University of Oslo,           Norway      (Numerical derivatives in ABACUS)
  Kenneth Ruud,             UiT The Arctic U. of Norway,  Norway      (DALTON; ABACUS magnetic properties and much more)
  Pawel Salek,              KTH Stockholm,                Sweden      (DALTON; DFT code)
  Claire C. M. Samson       University of Karlsruhe       Germany     (Boys localization, r12 integrals in ERI)
  Alfredo Sanchez de Meras, University of Valencia,       Spain       (CC module, Cholesky decomposition)
  Trond Saue,               Paul Sabatier University,     France      (direct Fock matrix construction)
  Stephan P. A. Sauer,      University of Copenhagen,     Denmark     (SOPPA(CCSD), SOPPA prop., AOSOPPA, vibrational g-factors)
  Bernd Schimmelpfennig,    Forschungszentrum Karlsruhe,  Germany     (AMFI module)
  Anna K. Schnack-Petersen, University of Copenhagen,     Denmark     (RPA(D) and HRPA(D) properties in AOSOPPA)
  Kristian Sneskov,         Aarhus University,            Denmark     (Polarizable embedding, QM/MM)
  Arnfinn H. Steindal,      UiT The Arctic U. of Norway,  Norway      (parallel QM/MM, polarizable embedding)
  Casper Steinmann,         Aalborg University,           Denmark     (QFIT, polarizable embedding)
  K. O. Sylvester-Hvid,     University of Copenhagen,     Denmark     (MC-SCRF)
  Peter R. Taylor,          VLSCI/Univ. of Melbourne,     Australia   (Symmetry handling ABACUS, integral transformation)
  Andrew M. Teale,          University of Nottingham,     England     (DFT-AC, DFT-D)
  David P. Tew,             University of Bristol,        England     (CCSD(R12))
  Julien Toulouse,          Sorbonne Univ.,               France      (MC-srDFT)
  Olav Vahtras,             KTH Stockholm,                Sweden      (Triplet response, spin-orbit, ESR, TDDFT, open-shell DFT)
  Lucas Visscher,           Vrije Universiteit Amsterdam, Netherlands (Frozen density embedding)
  David J. Wilson,          La Trobe University,          Australia   (DFT Hessian and DFT magnetizabilities)
  Hans Agren,               KTH Stockholm,                Sweden      (SIRIUS module, RESPONS, MC-SCRF solvation)
 --------------------------------------------------------------------------------

     Date and time (Linux)  : Sat Jul 27 19:44:51 2024
     Host name              : dn006                                   

 * Work memory size             :    64000000 =  488.28 megabytes.

 * Directories for basis set searches:
   1) /gpfs/projects/rjh/adrian/beta_paper_database/dalton/hf/NOCl/dipole
   2) /gpfs/projects/rjh/adrian/dalton/build/basis


Compilation information
-----------------------

 Who compiled             | ahurtado
 Host                     | sn-mem
 System                   | Linux-3.10.0-1160.81.1.el7.x86_64
 CMake generator          | Unix Makefiles
 Processor                | x86_64
 64-bit integers          | OFF
 MPI                      | ON
 Fortran compiler         | /gpfs/software/intel/oneAPI/2021_4/mpi/2021.4.0/bi
                          | n/mpiifort
 Fortran compiler version | unknown
 C compiler               | /gpfs/software/intel/oneAPI/2021_4/mpi/2021.4.0/bi
                          | n/mpiicc
 C compiler version       | unknown
 C++ compiler             | /gpfs/software/intel/oneAPI/2021_4/mpi/2021.4.0/bi
                          | n/mpiicpc
 C++ compiler version     | unknown
 Static linking           | OFF
 Last Git revision        | 66052b3af5ea7225e31178bf9a8b031913c72190
 Git branch               | (HEAD detached at Dalton2020.0)
 Configuration time       | 2024-05-30 10:57:17.145493

 * MPI parallel run using 38 processes.


   Content of the .dal input file
 ----------------------------------

**DALTON INPUT
.RUN RESPONSE
.DIRECT
**WAVE FUNCTIONS
.HF
**PROPERTIES
**RESPONSE
*QUADRA
.DIPLEN
.FREQUENCIES
5
0.0 0.0063445625 0.012689125 0.0190336875 0.02537825
**END OF DALTON INPUT


   Content of the .mol file
 ----------------------------

BASIS
t-aug-cc-pCVTZ
blah
blah
Atomtype=3 Angstrom Charge=0 Nosymmmetry
Charge=17 Atoms=1
Cl_a -0.531200001141 -0.929799999232 0.000000000000
Charge=7 Atoms=1
N_a 0.000000000000 0.972399997674 0.000000000000
Charge=8 Atoms=1
O_a 1.128700001162 1.124999999397 0.000000000000


       *******************************************************************
       *********** Output from DALTON general input processing ***********
       *******************************************************************

 --------------------------------------------------------------------------------
   Overall default print level:    0
   Print level for DALTON.STAT:    1

    Parallel calculation using MPI
    AO-direct calculation (in sections where implemented)
    HERMIT 1- and 2-electron integral sections will be executed
    "Old" integral transformation used (limited to max 255 basis functions)
    Wave function sections will be executed (SIRIUS module)
    Dynamic molecular response properties section will be executed (RESPONSE module)
 --------------------------------------------------------------------------------


   ****************************************************************************
   *************** Output of molecule and basis set information ***************
   ****************************************************************************


    The two title cards from your ".mol" input:
    ------------------------------------------------------------------------
 1: blah                                                                    
 2: blah                                                                    
    ------------------------------------------------------------------------

  Coordinates are entered in Angstrom and converted to atomic units.
          - Conversion factor : 1 bohr = 0.52917721 A

  Atomic type no.    1
  --------------------
  Nuclear charge:  17.00000
  Number of symmetry independent centers:    1
  Number of basis sets to read;    2
  Basis set file used for this atomic type with Z =  17 :
     "/gpfs/projects/rjh/adrian/dalton/build/basis/aug-cc-pCVTZ"

  Atomic type no.    2
  --------------------
  Nuclear charge:   7.00000
  Number of symmetry independent centers:    1
  Number of basis sets to read;    2
  Basis set file used for this atomic type with Z =   7 :
     "/gpfs/projects/rjh/adrian/dalton/build/basis/aug-cc-pCVTZ"

  Atomic type no.    3
  --------------------
  Nuclear charge:   8.00000
  Number of symmetry independent centers:    1
  Number of basis sets to read;    2
  Basis set file used for this atomic type with Z =   8 :
     "/gpfs/projects/rjh/adrian/dalton/build/basis/aug-cc-pCVTZ"


                         SYMGRP: Point group information
                         -------------------------------

@    Point group: C1 


                                 Isotopic Masses
                                 ---------------

                           Cl_a       34.968853
                           N_a        14.003074
                           O_a        15.994915

                       Total mass:    64.966842 amu
                       Natural abundance:  75.308 %

 Center-of-mass coordinates (a.u.):   -0.015184   -0.026271    0.000000
 Center-of-mass coordinates (Angs):   -0.008035   -0.013902    0.000000


  Atoms and basis sets
  --------------------

  Number of atom types :    3
  Total number of atoms:    3

  Basis set used is "t-aug-cc-pCVTZ" from the basis set library.

  label    atoms   charge   prim   cont     basis
  ----------------------------------------------------------------------
  Cl          1   17.0000   132   107      [20s14p7d5f|10s9p7d5f]                             
  N_          1    7.0000   103    91      [15s10p6d4f|9s8p6d4f]                              
  O_          1    8.0000   103    91      [15s10p6d4f|9s8p6d4f]                              
  ----------------------------------------------------------------------
  total:      3   32.0000   338   289
  ----------------------------------------------------------------------
  Spherical harmonic basis used.

  Threshold for neglecting AO integrals:  1.00D-12


  Cartesian Coordinates (a.u.)
  ----------------------------

  Total number of coordinates:    9
  Cl_a    :     1  x  -1.0038225198    2  y  -1.7570673496    3  z   0.0000000000
  N_a     :     4  x   0.0000000000    5  y   1.8375696795    6  z   0.0000000000
  O_a     :     7  x   2.1329338795    8  y   2.1259418895    9  z   0.0000000000


   Interatomic separations (in Angstrom):
   --------------------------------------

            Cl_a        N_a         O_a   
            ------      ------      ------
 Cl_a  :    0.000000
 N_a   :    1.974978    0.000000
 O_a   :    2.641490    1.138969    0.000000


  Max    interatomic separation is    2.6415 Angstrom (    4.9917 Bohr)
  between atoms    3 and    1, "O_a   " and "Cl_a  ".

  Min YX interatomic separation is    1.1390 Angstrom (    2.1523 Bohr)


  Bond distances (Angstrom):
  --------------------------

                  atom 1     atom 2       distance
                  ------     ------       --------
  bond distance:  N_a        Cl_a         1.974978
  bond distance:  O_a        N_a          1.138969


  Bond angles (degrees):
  ----------------------

                  atom 1     atom 2     atom 3         angle
                  ------     ------     ------         -----
  bond angle:     Cl_a       N_a        O_a          113.302




 Principal moments of inertia (u*A**2) and principal axes
 --------------------------------------------------------

   IA       5.840433          0.544616    0.838686    0.000000
   IB      88.102929          0.838686   -0.544616    0.000000
   IC      93.943362          0.000000    0.000000    1.000000


 Rotational constants
 --------------------

@    The molecule is planar.

               A                   B                   C

          86531.0810           5736.2339           5379.6138 MHz
            2.886366            0.191340            0.179445 cm-1


@  Nuclear repulsion energy :   85.148419784453 Hartree


                     .---------------------------------------.
                     | Starting in Integral Section (HERMIT) |
                     `---------------------------------------'



 ***************************************************************************************
 ****************** Output from **INTEGRALS input processing (HERMIT) ******************
 ***************************************************************************************


 - Using defaults, no **INTEGRALS input found

 Default print level:        1

 Calculation of one-electron Hamiltonian integrals.

 Center of mass  (bohr):     -0.015183530523     -0.026271029737      0.000000000000
 Operator center (bohr):      0.000000000000      0.000000000000      0.000000000000
 Gauge origin    (bohr):      0.000000000000      0.000000000000      0.000000000000
 Dipole origin   (bohr):      0.000000000000      0.000000000000      0.000000000000


     ************************************************************************
     ************************** Output from HERINT **************************
     ************************************************************************



                      Nuclear contribution to dipole moments
                      --------------------------------------

                 au               Debye          C m (/(10**-30)

      x     -0.00151180        -0.00384261        -0.01281757
      y      0.00037793         0.00096060         0.00320422
      z      0.00000000         0.00000000         0.00000000


  Time used in GABGEN     is       0.77 seconds
  Total CPU  time used in HERMIT:   1.07 seconds
  Total wall time used in HERMIT:   1.07 seconds


                        .----------------------------------.
                        | End of Integral Section (HERMIT) |
                        `----------------------------------'



                   .--------------------------------------------.
                   | Starting in Wave Function Section (SIRIUS) |
                   `--------------------------------------------'


 *** Output from Huckel module :

     Using EWMO model:          T
     Using EHT  model:          F
     Number of Huckel orbitals each symmetry:   24

 EWMO - Energy Weighted Maximum Overlap - is a Huckel type method,
        which normally is better than Extended Huckel Theory.
 Reference: Linderberg and Ohrn, Propagators in Quantum Chemistry (Wiley, 1973)

 Huckel EWMO eigenvalues for symmetry :  1
         -104.883930     -20.685569     -15.673202     -10.608489      -8.072407
           -8.072214      -8.072213      -1.708026      -1.175229      -0.898477
           -0.756044      -0.739435      -0.598849      -0.506247      -0.484719
           -0.442076      -0.370251      -0.309233      -0.187242      -0.055540
           -0.055527      -0.054317      -0.054072      -0.050572

 **********************************************************************
 *SIRIUS* a direct, restricted step, second order MCSCF program       *
 **********************************************************************

 
     Date and time (Linux)  : Sat Jul 27 19:44:53 2024
     Host name              : dn006                                   

 Title lines from ".mol" input file:
     blah                                                                    
     blah                                                                    

 Print level on unit LUPRI =   2 is   0
 Print level on unit LUW4  =   2 is   5

@    Restricted, closed shell Hartree-Fock calculation.

@    Time-dependent Hartree-Fock calculation (random phase approximation).
 Fock matrices are calculated directly and in parallel without use of integrals on disk.

 Initial molecular orbitals are obtained according to
 ".MOSTART EWMO  " input option

     Wave function specification
     ============================
@    Wave function type        --- HF ---
@    Number of closed shell electrons          32
@    Number of electrons in active shells       0
@    Total charge of the molecule               0

@    Spin multiplicity and 2 M_S                1         0
@    Total number of symmetries                 1 (point group: C1 )
@    Reference state symmetry                   1 (irrep name : A  )

     Orbital specifications
     ======================
@    Abelian symmetry species          All |    1
@                                          |  A  
                                       --- |  ---
@    Occupied SCF orbitals              16 |   16
@    Secondary orbitals                273 |  273
@    Total number of orbitals          289 |  289
@    Number of basis functions         289 |  289

     Optimization information
     ========================
@    Number of configurations                 1
@    Number of orbital rotations           4368
     ------------------------------------------
@    Total number of variables             4369

     Maximum number of Fock   iterations      0
     Maximum number of DIIS   iterations     60
     Maximum number of QC-SCF iterations     60
     Threshold for SCF convergence     1.00D-05

    INFORMATION: Switched to "new" integral transformation (from 1988 ;-) )
    because more than 255 basis functions.


 ***********************************************
 ***** DIIS acceleration of SCF iterations *****
 ***********************************************

 C1-DIIS algorithm; max error vectors =    8

 Iter      Total energy        Error norm    Delta(E)  DIIS dim.
 -----------------------------------------------------------------------------
   1  Screening settings (-IFTHRS, JTDIIS, DIFDEN, times)   -8    1    T  2.28D+00  2.30D+00
@  1    -588.363813229        3.05259D+00   -5.88D+02    1
      Virial theorem: -V/T =      2.000471
@    MULPOP   Cl_a   -0.20; N_a     0.55; O_a    -0.35; 
   1  Level shift: doubly occupied orbital energies shifted by -2.00D-01
 -----------------------------------------------------------------------------
   2  Screening settings (-IFTHRS, JTDIIS, DIFDEN, times)   -8    2    T  2.23D+00  2.25D+00
@  2    -588.703787193        1.15077D+00   -3.40D-01    2
      Virial theorem: -V/T =      2.000225
@    MULPOP   Cl_a   -0.17; N_a     0.26; O_a    -0.09; 
   2  Level shift: doubly occupied orbital energies shifted by -1.00D-01
 -----------------------------------------------------------------------------
   3  Screening settings (-IFTHRS, JTDIIS, DIFDEN, times)   -8    3    T  2.24D+00  2.25D+00
@  3    -588.760372778        4.12059D-01   -5.66D-02    3
      Virial theorem: -V/T =      2.000161
@    MULPOP   Cl_a   -0.32; N_a     0.67; O_a    -0.35; 
   3  Level shift: doubly occupied orbital energies shifted by -5.00D-02
 -----------------------------------------------------------------------------
   4  Screening settings (-IFTHRS, JTDIIS, DIFDEN, times)  -12    4    F  2.23D+00  2.24D+00
@  4    -588.769451060        1.11570D-01   -9.08D-03    4
      Virial theorem: -V/T =      2.000755
@    MULPOP   Cl_a   -0.34; N_a     0.61; O_a    -0.26; 
   4  Level shift: doubly occupied orbital energies shifted by -2.50D-02
 -----------------------------------------------------------------------------
   5  Screening settings (-IFTHRS, JTDIIS, DIFDEN, times)  -12    5    T  2.26D+00  2.27D+00
@  5    -588.770677341        4.06409D-02   -1.23D-03    5
      Virial theorem: -V/T =      2.000548
@    MULPOP   Cl_a   -0.34; N_a     0.62; O_a    -0.27; 
   5  Level shift: doubly occupied orbital energies shifted by -1.25D-02
 -----------------------------------------------------------------------------
   6  Screening settings (-IFTHRS, JTDIIS, DIFDEN, times)  -12    6    T  2.25D+00  2.27D+00
@  6    -588.770905656        1.73252D-02   -2.28D-04    6
      Virial theorem: -V/T =      2.000545
@    MULPOP   Cl_a   -0.35; N_a     0.62; O_a    -0.27; 
 -----------------------------------------------------------------------------
   7  Screening settings (-IFTHRS, JTDIIS, DIFDEN, times)  -12    7    T  2.26D+00  2.27D+00
@  7    -588.770968932        6.71055D-03   -6.33D-05    7
      Virial theorem: -V/T =      2.000572
@    MULPOP   Cl_a   -0.35; N_a     0.62; O_a    -0.27; 
 -----------------------------------------------------------------------------
   8  Screening settings (-IFTHRS, JTDIIS, DIFDEN, times)  -12    8    T  2.25D+00  2.26D+00
@  8    -588.770980881        2.84228D-03   -1.19D-05    8
      Virial theorem: -V/T =      2.000558
@    MULPOP   Cl_a   -0.35; N_a     0.62; O_a    -0.27; 
 -----------------------------------------------------------------------------
   9  Screening settings (-IFTHRS, JTDIIS, DIFDEN, times)  -12    9    T  2.25D+00  2.26D+00
@  9    -588.770983126        1.09558D-03   -2.25D-06    8
      Virial theorem: -V/T =      2.000558
@    MULPOP   Cl_a   -0.35; N_a     0.62; O_a    -0.27; 
 -----------------------------------------------------------------------------
  10  Screening settings (-IFTHRS, JTDIIS, DIFDEN, times)  -12   10    T  2.24D+00  2.25D+00
@ 10    -588.770983481        3.54903D-04   -3.55D-07    8
      Virial theorem: -V/T =      2.000558
@    MULPOP   Cl_a   -0.35; N_a     0.62; O_a    -0.27; 
 -----------------------------------------------------------------------------
  11  Screening settings (-IFTHRS, JTDIIS, DIFDEN, times)  -12   11    T  2.21D+00  2.23D+00
@ 11    -588.770983520        1.56019D-04   -3.82D-08    8
      Virial theorem: -V/T =      2.000558
@    MULPOP   Cl_a   -0.35; N_a     0.62; O_a    -0.27; 
 -----------------------------------------------------------------------------
  12  Screening settings (-IFTHRS, JTDIIS, DIFDEN, times)  -12   12    T  2.23D+00  2.24D+00
@ 12    -588.770983526        5.17330D-05   -6.29D-09    8
      Virial theorem: -V/T =      2.000558
@    MULPOP   Cl_a   -0.35; N_a     0.62; O_a    -0.27; 
 -----------------------------------------------------------------------------
  13  Screening settings (-IFTHRS, JTDIIS, DIFDEN, times)  -12   13    T  2.22D+00  2.23D+00
@ 13    -588.770983526        2.66034D-05   -3.11D-10    8
      Virial theorem: -V/T =      2.000558
@    MULPOP   Cl_a   -0.35; N_a     0.62; O_a    -0.27; 
 -----------------------------------------------------------------------------
  14  Screening settings (-IFTHRS, JTDIIS, DIFDEN, times)  -12   14    T  2.20D+00  2.21D+00
@ 14    -588.770983526        7.82206D-06   -7.50D-11    8

@ *** DIIS converged in  14 iterations !
@     Converged SCF energy, gradient:   -588.770983526191    7.82D-06
    - total time used in SIRFCK :              0.00 seconds


 *** SCF orbital energy analysis ***

 Only the 20 lowest virtual orbital energies printed in each symmetry.

 Number of electrons :   32
 Orbital occupations :   16

 Sym       Hartree-Fock orbital energies

1 A    -104.83565879   -20.75684535   -15.85403297   -10.55927066    -8.02532391
         -8.02396489    -8.02390235    -1.68278829    -1.10533871    -0.96900916
         -0.77209134    -0.76383832    -0.72583513    -0.45893462    -0.45857274
         -0.43124923     0.00394091     0.00713879     0.00732470     0.00755736
          0.01309605     0.01385288     0.01387025     0.01551418     0.01641627
          0.01791722     0.02356993     0.02907176     0.03060802     0.03269656
          0.03367900     0.04154946     0.04429216     0.04601149     0.04978940
          0.05185204

    E(LUMO) :     0.00394091 au (symmetry 1)
  - E(HOMO) :    -0.43124923 au (symmetry 1)
  ------------------------------------------
    gap     :     0.43519014 au

 --- Writing SIRIFC interface file

 CPU and wall time for SCF :      32.568      32.768


                       .-----------------------------------.
                       | --- Final results from SIRIUS --- |
                       `-----------------------------------'


@    Spin multiplicity:           1
@    Spatial symmetry:            1 ( irrep  A   in C1  )
@    Total charge of molecule:    0

@    Final HF energy:            -588.770983526191                 
@    Nuclear repulsion:            85.148419784453
@    Electronic energy:          -673.919403310644

@    Final gradient norm:           0.000007822056

 
     Date and time (Linux)  : Sat Jul 27 19:45:25 2024
     Host name              : dn006                                   

File label for MO orbitals:  27Jul24   FOCKDIIS

 (Only coefficients > 0.0100 are printed.)

 Molecular orbitals for symmetry species 1  (A  )
 ------------------------------------------------

    Orbital         7        8        9       10       11       12       13
   3 Cl_a:1s    -0.0012  -0.0348   0.7883   0.4658   0.1463   0.2662  -0.0000
   5 Cl_a:1s     0.0020  -0.0017   0.0182   0.0254   0.0395   0.0506   0.0000
   8 Cl_a:1s     0.0008   0.0736   0.0139  -0.0226  -0.0133  -0.0195  -0.0000
   9 Cl_a:1s     0.0027  -0.0118  -0.0789  -0.0415  -0.0187   0.0267   0.0000
  10 Cl_a:1s     0.0017   0.0004  -0.0341  -0.0053  -0.0077   0.0244  -0.0000
  11 Cl_a:2px    0.9674  -0.0008  -0.0007   0.0001   0.0009   0.0020  -0.0000
  12 Cl_a:2py   -0.2509  -0.0005  -0.0008   0.0008   0.0007   0.0032   0.0000
  14 Cl_a:2px   -0.0053  -0.0134   0.0217  -0.0142  -0.0996  -0.0269  -0.0000
  15 Cl_a:2py    0.0013  -0.0243   0.0902  -0.0850  -0.1100  -0.2461   0.0000
  16 Cl_a:2pz    0.0000   0.0000   0.0000  -0.0000  -0.0000   0.0000  -0.0971
  20 Cl_a:2px    0.0095   0.0135   0.0065   0.0003   0.0160  -0.0144   0.0000
  21 Cl_a:2py    0.0015   0.0112  -0.0175   0.0269   0.0173   0.0555   0.0000
  22 Cl_a:2pz    0.0000  -0.0000  -0.0000   0.0000  -0.0000   0.0000   0.0312
  29 Cl_a:2px    0.0117  -0.0073  -0.0211  -0.0075  -0.0085   0.0499  -0.0000
  30 Cl_a:2py    0.0028  -0.0092  -0.0566  -0.0130  -0.0067   0.0148   0.0000
  31 Cl_a:2pz    0.0000   0.0000   0.0000  -0.0000   0.0000  -0.0000  -0.0527
  32 Cl_a:2px    0.0019  -0.0053  -0.0014  -0.0051   0.0032   0.0129  -0.0000
  33 Cl_a:2py    0.0016   0.0058  -0.0198  -0.0007  -0.0040   0.0127   0.0000
  52 Cl_a:3d2+   0.0002   0.0016  -0.0062   0.0050   0.0029   0.0122  -0.0000
  53 Cl_a:3d2-  -0.0006  -0.0044   0.0065  -0.0031  -0.0112  -0.0049  -0.0000
  54 Cl_a:3d1-   0.0000   0.0000   0.0000   0.0000   0.0000  -0.0000  -0.0102
  55 Cl_a:3d0   -0.0001   0.0025  -0.0070   0.0035   0.0072   0.0104  -0.0000
  57 Cl_a:3d2+  -0.0007   0.0029  -0.0114   0.0067   0.0077   0.0181  -0.0000
  58 Cl_a:3d2-   0.0040   0.0117   0.0042   0.0012   0.0037  -0.0163  -0.0000
  59 Cl_a:3d1-   0.0000   0.0000   0.0000  -0.0000   0.0000  -0.0000   0.0197
  62 Cl_a:3d2+   0.0011  -0.0013   0.0074  -0.0065  -0.0018  -0.0181  -0.0000
  63 Cl_a:3d2-   0.0040  -0.0112  -0.0156   0.0015   0.0029   0.0199  -0.0000
  64 Cl_a:3d1-   0.0000   0.0000   0.0000   0.0000   0.0000  -0.0000  -0.0248
  65 Cl_a:3d0   -0.0013   0.0091   0.0138   0.0020   0.0001  -0.0083  -0.0000
  67 Cl_a:3d2+   0.0010   0.0092   0.0112   0.0038  -0.0050   0.0106  -0.0000
 108 N_a :1s    -0.0004   0.0268   0.0025  -0.0016   0.0041  -0.0157   0.0000
 109 N_a :1s    -0.0018  -0.4594   0.3638  -0.6143   0.1320  -0.3798  -0.0000
 110 N_a :1s     0.0005  -0.0198  -0.0027  -0.0066   0.0002   0.0115   0.0000
 111 N_a :1s    -0.0028   0.1147   0.0241  -0.0215   0.0899  -0.1442  -0.0000
 114 N_a :1s    -0.0016   0.0031   0.0604   0.0821   0.0543  -0.1395   0.0000
 115 N_a :1s     0.0065  -0.0004   0.0634   0.0678   0.0264  -0.0620  -0.0000
 116 N_a :1s     0.0007  -0.0042   0.0048   0.0085   0.0025  -0.0178   0.0000
 117 N_a :2px    0.0001  -0.3004  -0.1488   0.0345  -0.2839   0.6376  -0.0000
 118 N_a :2py    0.0000  -0.0306  -0.1367  -0.0822   0.4480   0.1526  -0.0000
 119 N_a :2pz    0.0000  -0.0000  -0.0000  -0.0000  -0.0000  -0.0000  -0.5573
 120 N_a :2px   -0.0006   0.0424   0.0131  -0.0027   0.0209  -0.0493   0.0000
 123 N_a :2px    0.0009   0.1263   0.0439  -0.0191   0.0622  -0.0926   0.0000
 124 N_a :2py    0.0068   0.0348   0.0393   0.0146  -0.1123  -0.0538   0.0000
 125 N_a :2pz   -0.0000  -0.0000  -0.0000   0.0000  -0.0000   0.0000   0.0835
 132 N_a :2px   -0.0106   0.1273   0.0238   0.0135  -0.0430  -0.0870   0.0000
 133 N_a :2py   -0.0021   0.0979   0.0405  -0.0359  -0.0505  -0.0325  -0.0000
 134 N_a :2pz   -0.0000  -0.0000  -0.0000  -0.0000  -0.0000   0.0000   0.0468
 135 N_a :2px    0.0013   0.0109  -0.0228   0.0088  -0.0260   0.0040  -0.0000
 136 N_a :2py    0.0019  -0.0120  -0.0209  -0.0062   0.0035   0.0227  -0.0000
 137 N_a :2pz    0.0000   0.0000   0.0000  -0.0000  -0.0000  -0.0000  -0.0272
 146 N_a :3d2-   0.0000  -0.0029  -0.0013  -0.0015   0.0159   0.0053  -0.0000
 149 N_a :3d1+   0.0000  -0.0000  -0.0000   0.0000   0.0000   0.0000  -0.0198
 150 N_a :3d2+   0.0000  -0.0151  -0.0049  -0.0033  -0.0063   0.0143   0.0000
 151 N_a :3d2-   0.0000  -0.0014   0.0051  -0.0017   0.0263   0.0015   0.0000
 154 N_a :3d1+  -0.0000   0.0000  -0.0000  -0.0000  -0.0000  -0.0000  -0.0363
 155 N_a :3d2+  -0.0003  -0.0151  -0.0155  -0.0038  -0.0030   0.0194   0.0000
 156 N_a :3d2-   0.0037   0.0143   0.0212  -0.0007  -0.0578  -0.0413  -0.0000
 157 N_a :3d1-   0.0000  -0.0000  -0.0000  -0.0000  -0.0000   0.0000   0.0201
 159 N_a :3d1+   0.0000  -0.0000  -0.0000  -0.0000  -0.0000   0.0000   0.0376
 160 N_a :3d2+   0.0026   0.0149   0.0044  -0.0204   0.0246   0.0101   0.0000
 161 N_a :3d2-   0.0058   0.0037   0.0060  -0.0070  -0.0371   0.0179  -0.0000
 162 N_a :3d1-   0.0000   0.0000   0.0000   0.0000   0.0000  -0.0000  -0.0251
 165 N_a :3d2+  -0.0014   0.0494   0.0225  -0.0068  -0.0033  -0.0231  -0.0000
 166 N_a :3d2-   0.0019  -0.0028  -0.0020   0.0009   0.0008   0.0113  -0.0000
 185 N_a :4f3-  -0.0007  -0.0033   0.0037   0.0012  -0.0295  -0.0014  -0.0000
 190 N_a :4f2+   0.0000   0.0000   0.0000  -0.0000  -0.0000  -0.0000   0.0169
 199 O_a :1s     0.0001   0.0134  -0.0012   0.0055  -0.0000  -0.0024  -0.0000
 200 O_a :1s     0.0006  -0.7039  -0.3053   0.5364   0.0468  -0.1468  -0.0000
 202 O_a :1s    -0.0025   0.0084  -0.0575   0.1359   0.0038  -0.0624  -0.0000
 205 O_a :1s    -0.0026  -0.0727  -0.0251  -0.0289  -0.0175   0.1137  -0.0000
 206 O_a :1s    -0.0094   0.0102  -0.0006  -0.0370  -0.0190   0.0457   0.0000
 207 O_a :1s    -0.0017   0.0079   0.0169  -0.0070  -0.0010   0.0103  -0.0000
 208 O_a :2px    0.0000   0.2464  -0.0873   0.4501   0.0588  -0.5870   0.0000
 209 O_a :2py   -0.0000   0.0345  -0.0711   0.0084   0.7358   0.1048  -0.0000
 210 O_a :2pz   -0.0000   0.0000  -0.0000  -0.0000  -0.0000  -0.0000  -0.6861
 211 O_a :2px   -0.0002   0.0044   0.0068  -0.0155   0.0014   0.0056   0.0000
 214 O_a :2px   -0.0006  -0.0326   0.0263  -0.0662   0.0028   0.0205  -0.0000
 215 O_a :2py   -0.0030  -0.0129  -0.0131  -0.0072   0.0504   0.0372   0.0000
 216 O_a :2pz    0.0000   0.0000   0.0000   0.0000   0.0000   0.0000  -0.0402
 223 O_a :2px    0.0020  -0.1088  -0.0096   0.0102   0.0618  -0.0145   0.0000
 224 O_a :2py    0.0033  -0.0570  -0.0233   0.0170   0.0628   0.0169  -0.0000
 225 O_a :2pz   -0.0000   0.0000   0.0000  -0.0000  -0.0000  -0.0000  -0.0200
 226 O_a :2px   -0.0023  -0.0118   0.0187  -0.0004   0.0309  -0.0293   0.0000
 227 O_a :2py   -0.0029   0.0036   0.0176  -0.0058  -0.0061  -0.0291   0.0000
 228 O_a :2pz   -0.0000  -0.0000  -0.0000   0.0000  -0.0000   0.0000   0.0385
 237 O_a :3d2-   0.0000  -0.0029   0.0017  -0.0010  -0.0110   0.0009  -0.0000
 240 O_a :3d1+   0.0000   0.0000   0.0000   0.0000   0.0000  -0.0000   0.0127
 241 O_a :3d2+  -0.0000  -0.0094   0.0004  -0.0073  -0.0000   0.0100  -0.0000
 242 O_a :3d2-   0.0001  -0.0076   0.0064  -0.0015  -0.0318  -0.0011   0.0000
 244 O_a :3d0    0.0000   0.0152   0.0003   0.0068   0.0045  -0.0131   0.0000
 245 O_a :3d1+  -0.0000  -0.0000  -0.0000  -0.0000  -0.0000   0.0000   0.0367
 246 O_a :3d2+   0.0002  -0.0263  -0.0011  -0.0150   0.0001   0.0248   0.0000
 247 O_a :3d2-   0.0020   0.0060   0.0099   0.0002  -0.0316  -0.0145   0.0000
 250 O_a :3d1+  -0.0000  -0.0000  -0.0000  -0.0000  -0.0000   0.0000   0.0328
 251 O_a :3d2+   0.0007   0.0018  -0.0004  -0.0015   0.0003   0.0106   0.0000
 252 O_a :3d2-  -0.0015   0.0239  -0.0051  -0.0004   0.0103  -0.0022   0.0000
 254 O_a :3d0    0.0011  -0.0200   0.0016  -0.0029   0.0113   0.0016   0.0000
 255 O_a :3d1+   0.0000  -0.0000  -0.0000  -0.0000  -0.0000   0.0000  -0.0124
 256 O_a :3d2+   0.0022   0.0190  -0.0020   0.0056  -0.0228   0.0042  -0.0000

    Orbital        14       15       16       17       18       19       20
   3 Cl_a:1s    -0.0000   0.0165  -0.0175  -0.0116   0.0048  -0.0000  -0.0213
   5 Cl_a:1s    -0.0000  -0.0108  -0.0306  -0.0045  -0.0170   0.0000   0.0004
   8 Cl_a:1s    -0.0000  -0.0190   0.0945   0.3498  -0.2987   0.0000  -0.1094
   9 Cl_a:1s    -0.0000  -0.0092   0.0752   1.2930   0.8277   0.0000  -2.5072
  10 Cl_a:1s    -0.0000  -0.0079  -0.0197  -2.0814   0.2336   0.0000  -3.1097
  14 Cl_a:2px   -0.0000  -0.9464   0.0409  -0.0038   0.0101   0.0000   0.0003
  15 Cl_a:2py    0.0000   0.1408   0.7323   0.0122   0.0064   0.0000   0.0031
  16 Cl_a:2pz    0.9480  -0.0000  -0.0000   0.0000  -0.0000   0.0054   0.0000
  20 Cl_a:2px    0.0000  -0.0492  -0.0288   0.0405  -0.0016   0.0000   0.0058
  21 Cl_a:2py   -0.0000  -0.0056   0.0123   0.0527  -0.0261   0.0000  -0.0124
  22 Cl_a:2pz    0.0429   0.0000   0.0000  -0.0000  -0.0000   0.0202   0.0000
  29 Cl_a:2px   -0.0000  -0.1839   0.0184   0.3942  -0.1109  -0.0000  -0.4791
  30 Cl_a:2py    0.0000   0.0078   0.0410   0.2206   0.0871   0.0000  -0.2879
  31 Cl_a:2pz    0.1592  -0.0000   0.0000   0.0000   0.0000   0.5042   0.0000
  32 Cl_a:2px   -0.0000  -0.0393   0.0006   0.5016  -0.7305  -0.0000  -0.4488
  33 Cl_a:2py    0.0000  -0.0089  -0.0003   0.1662   0.2248   0.0000  -0.3983
  34 Cl_a:2pz    0.0035  -0.0000  -0.0000  -0.0000   0.0000  -0.1479  -0.0000
  35 Cl_a:2px    0.0000   0.0077  -0.0033  -1.6743   1.5795   0.0000   2.7978
  36 Cl_a:2py   -0.0000  -0.0002  -0.0019  -1.2561  -0.9486  -0.0000   0.4329
  37 Cl_a:2pz    0.0016  -0.0000  -0.0000   0.0000   0.0000   1.4078  -0.0000
  52 Cl_a:3d2+  -0.0000   0.0011  -0.0103   0.0013   0.0004  -0.0000  -0.0001
  53 Cl_a:3d2-  -0.0000  -0.0075   0.0144   0.0002  -0.0001   0.0000  -0.0012
  57 Cl_a:3d2+  -0.0000   0.0018  -0.0163   0.0006   0.0012  -0.0000  -0.0001
  58 Cl_a:3d2-  -0.0000  -0.0145  -0.0132   0.0183  -0.0022   0.0000   0.0163
  59 Cl_a:3d1-   0.0147  -0.0000   0.0000   0.0000   0.0000   0.0023   0.0000
  62 Cl_a:3d2+  -0.0000  -0.0024  -0.0159  -0.0077   0.0119  -0.0000   0.0093
  63 Cl_a:3d2-  -0.0000  -0.0556   0.0059   0.1011   0.0196  -0.0000  -0.1397
  64 Cl_a:3d1-   0.0558  -0.0000   0.0000   0.0000   0.0000   0.1632   0.0000
  65 Cl_a:3d0    0.0000   0.0070   0.0053  -0.0320  -0.0430   0.0000   0.0684
  66 Cl_a:3d1+   0.0263   0.0000  -0.0000  -0.0000   0.0000   0.0380  -0.0000
  67 Cl_a:3d2+  -0.0000  -0.0266  -0.0064   0.0303  -0.0531  -0.0000  -0.0267
  68 Cl_a:3d2-  -0.0000  -0.0106  -0.0009   0.0451  -0.1026  -0.0000  -0.0397
  69 Cl_a:3d1-   0.0044  -0.0000  -0.0000  -0.0000   0.0000   0.0179  -0.0000
  70 Cl_a:3d0    0.0000   0.0026  -0.0002  -0.0452   0.0070  -0.0000  -0.0698
  71 Cl_a:3d1+   0.0035  -0.0000   0.0000   0.0000  -0.0000   0.0334   0.0000
  72 Cl_a:3d2+  -0.0000  -0.0016   0.0031   0.0738  -0.0008  -0.0000   0.0436
 101 Cl_a:4f3-  -0.0000  -0.0071  -0.0010   0.0184  -0.0063  -0.0000  -0.0128
 103 Cl_a:4f1-  -0.0000  -0.0003   0.0033  -0.0028  -0.0157   0.0000   0.0044
 104 Cl_a:4f0   -0.0083   0.0000  -0.0000  -0.0000  -0.0000  -0.0209   0.0000
 106 Cl_a:4f2+  -0.0054   0.0000  -0.0000  -0.0000  -0.0000  -0.0195  -0.0000
 107 Cl_a:4f3+   0.0000   0.0069  -0.0019  -0.0111  -0.0065  -0.0000   0.0170
 108 N_a :1s    -0.0000   0.0002  -0.0102   0.0001  -0.0035   0.0000  -0.0017
 109 N_a :1s    -0.0000  -0.0049  -0.2628  -0.0147  -0.0225  -0.0000  -0.0098
 111 N_a :1s     0.0000  -0.0129  -0.0829   0.0611  -0.1107   0.0000   0.0796
 114 N_a :1s     0.0000   0.0546  -0.2218   0.1161  -0.7875  -0.0000   1.2517
 115 N_a :1s     0.0000  -0.0822  -0.1104   1.8362  -4.8434  -0.0000   6.0451
 116 N_a :1s     0.0000  -0.0060  -0.0045   6.7970  -4.2348  -0.0000   6.3326
 117 N_a :2px   -0.0000   0.0302   0.2312   0.0141   0.0034   0.0000   0.0047
 118 N_a :2py   -0.0000   0.0118  -0.3425   0.0062   0.0050  -0.0000  -0.0122
 120 N_a :2px   -0.0000  -0.0031  -0.0140   0.0036  -0.0078  -0.0000   0.0036
 123 N_a :2px    0.0000  -0.0172  -0.0123   0.0869  -0.0461   0.0000   0.0568
 124 N_a :2py    0.0000  -0.0029  -0.0979   0.0450  -0.0545   0.0000   0.0172
 125 N_a :2pz    0.0211   0.0000   0.0000  -0.0000  -0.0000   0.0368  -0.0000
 132 N_a :2px    0.0000   0.1477   0.0304   0.1676  -0.1757   0.0000   0.4902
 133 N_a :2py   -0.0000  -0.0169   0.0116   0.2391  -0.5899  -0.0000  -0.2813
 134 N_a :2pz   -0.1032   0.0000  -0.0000  -0.0000  -0.0000  -0.1089   0.0000
 135 N_a :2px    0.0000   0.0106  -0.0076  -0.4473   0.9932   0.0000  -0.9396
 136 N_a :2py   -0.0000  -0.0145  -0.0509  -1.0656  -0.9196  -0.0000  -1.6470
 137 N_a :2pz    0.0365  -0.0000   0.0000   0.0000  -0.0000   1.0730   0.0000
 138 N_a :2px   -0.0000  -0.0095   0.0030   1.7680  -4.3837  -0.0000  -4.0651
 139 N_a :2py   -0.0000  -0.0087   0.0050   3.7190   1.0231  -0.0000  -5.6297
 140 N_a :2pz   -0.0040   0.0000  -0.0000  -0.0000  -0.0000  -4.2259  -0.0000
 151 N_a :3d2-  -0.0000   0.0016   0.0276   0.0005  -0.0034  -0.0000   0.0018
 152 N_a :3d1-  -0.0150  -0.0000   0.0000  -0.0000   0.0000  -0.0006  -0.0000
 153 N_a :3d0    0.0000   0.0004  -0.0155  -0.0017   0.0007  -0.0000  -0.0014
 154 N_a :3d1+  -0.0123   0.0000   0.0000   0.0000  -0.0000   0.0032   0.0000
 155 N_a :3d2+  -0.0000   0.0156  -0.0220   0.0034  -0.0016   0.0000   0.0019
 156 N_a :3d2-  -0.0000   0.0057  -0.0264   0.0145  -0.0063  -0.0000   0.0286
 157 N_a :3d1-  -0.0059   0.0000  -0.0000  -0.0000  -0.0000   0.0104  -0.0000
 158 N_a :3d0   -0.0000   0.0026  -0.0097  -0.0051   0.0002   0.0000  -0.0144
 159 N_a :3d1+   0.0064   0.0000  -0.0000  -0.0000  -0.0000   0.0184  -0.0000
 160 N_a :3d2+   0.0000   0.0001  -0.0294   0.0425  -0.0033   0.0000   0.0237
 161 N_a :3d2-  -0.0000  -0.0646  -0.0033   0.1703  -0.1077  -0.0000  -0.1531
 162 N_a :3d1-   0.0413  -0.0000   0.0000   0.0000   0.0000   0.2067  -0.0000
 163 N_a :3d0   -0.0000   0.0126  -0.0030  -0.0350   0.0460  -0.0000  -0.0553
 164 N_a :3d1+   0.0012  -0.0000   0.0000   0.0000  -0.0000   0.0919   0.0000
 165 N_a :3d2+  -0.0000   0.0002   0.0355   0.1537  -0.1230  -0.0000   0.0411
 166 N_a :3d2-  -0.0000  -0.0256  -0.0148  -0.0621  -0.4026  -0.0000  -0.2494
 167 N_a :3d1-   0.0024  -0.0000  -0.0000  -0.0000   0.0000   0.0374  -0.0000
 168 N_a :3d0    0.0000   0.0104   0.0038   0.0987   0.1009  -0.0000   0.1455
 169 N_a :3d1+   0.0079  -0.0000  -0.0000  -0.0000   0.0000   0.0506  -0.0000
 170 N_a :3d2+  -0.0000  -0.0030   0.0006  -0.0995   0.0906  -0.0000  -0.4977
 191 N_a :4f3+   0.0000   0.0013  -0.0034   0.0123   0.0038   0.0000   0.0128
 192 N_a :4f3-   0.0000   0.0032  -0.0052   0.0300   0.0097  -0.0000  -0.0030
 193 N_a :4f2-  -0.0032   0.0000  -0.0000  -0.0000   0.0000  -0.0136  -0.0000
 194 N_a :4f1-   0.0000  -0.0020  -0.0015  -0.0190   0.0043   0.0000  -0.0108
 195 N_a :4f0    0.0069  -0.0000   0.0000   0.0000   0.0000   0.0351   0.0000
 196 N_a :4f1+  -0.0000  -0.0041  -0.0011  -0.0091   0.0186   0.0000  -0.0226
 197 N_a :4f2+   0.0050  -0.0000  -0.0000  -0.0000   0.0000   0.0178  -0.0000
 198 N_a :4f3+  -0.0000  -0.0062   0.0011   0.0262  -0.0218  -0.0000  -0.0264
 200 O_a :1s     0.0000   0.0284   0.0267  -0.0105  -0.0035   0.0000  -0.0025
 202 O_a :1s    -0.0000   0.0099   0.0290  -0.1047   0.0446  -0.0000  -0.0771
 205 O_a :1s    -0.0000  -0.0135   0.0730  -0.5341   0.5535  -0.0000  -0.5999
 206 O_a :1s     0.0000   0.1067   0.0629  -2.0618   3.3403   0.0000  -2.1784
 207 O_a :1s    -0.0000   0.0080   0.0232  -4.6536   5.5738  -0.0000  -4.4352
 208 O_a :2px   -0.0000  -0.0247  -0.1302  -0.0111   0.0012   0.0000  -0.0053
 209 O_a :2py   -0.0000  -0.1727   0.4945  -0.0114  -0.0043  -0.0000   0.0079
 210 O_a :2pz   -0.1688   0.0000   0.0000   0.0000  -0.0000   0.0056   0.0000
 214 O_a :2px    0.0000  -0.0003  -0.0182   0.0439  -0.0556  -0.0000   0.0357
 215 O_a :2py    0.0000  -0.0115   0.0734  -0.0039   0.0070   0.0000  -0.0070
 216 O_a :2pz   -0.0188  -0.0000  -0.0000   0.0000   0.0000  -0.0214   0.0000
 223 O_a :2px   -0.0000  -0.0167  -0.0657   0.0049  -0.2207   0.0000   0.1496
 224 O_a :2py    0.0000  -0.0311   0.0508   0.0136   0.2856   0.0000   0.0841
 225 O_a :2pz   -0.0317   0.0000   0.0000   0.0000   0.0000  -0.1990  -0.0000
 226 O_a :2px    0.0000   0.0226  -0.0028   0.9533  -1.5702   0.0000   1.8459
 227 O_a :2py    0.0000   0.0179   0.0795   1.4843   0.9403   0.0000   0.4725
 228 O_a :2pz   -0.0612   0.0000  -0.0000  -0.0000  -0.0000  -1.0874  -0.0000
 229 O_a :2px    0.0000   0.0039  -0.0027   0.3784   1.4959   0.0000   1.8860
 230 O_a :2py    0.0000   0.0110  -0.0054  -2.5942   0.0912   0.0000   4.4893
 231 O_a :2pz    0.0020  -0.0000   0.0000   0.0000  -0.0000   1.9449   0.0000
 247 O_a :3d2-   0.0000  -0.0050  -0.0118   0.0032  -0.0072   0.0000   0.0059
 250 O_a :3d1+   0.0056   0.0000  -0.0000  -0.0000  -0.0000   0.0115  -0.0000
 251 O_a :3d2+   0.0000  -0.0010   0.0046  -0.0073   0.0158   0.0000  -0.0051
 252 O_a :3d2-   0.0000   0.0122  -0.0035  -0.0509  -0.0586  -0.0000  -0.0113
 253 O_a :3d1-   0.0191   0.0000  -0.0000   0.0000  -0.0000  -0.0077   0.0000
 254 O_a :3d0    0.0000  -0.0148  -0.0019   0.0035  -0.0355   0.0000   0.0185
 255 O_a :3d1+   0.0146   0.0000  -0.0000  -0.0000  -0.0000   0.0546  -0.0000
 256 O_a :3d2+   0.0000  -0.0191   0.0039   0.0142   0.0503   0.0000  -0.0387
 257 O_a :3d2-   0.0000   0.0007  -0.0119  -0.2085  -0.0641   0.0000   0.0342
 258 O_a :3d1-   0.0104  -0.0000   0.0000   0.0000  -0.0000   0.0227   0.0000
 259 O_a :3d0    0.0000  -0.0015   0.0022   0.0767  -0.1374   0.0000   0.0985
 260 O_a :3d1+   0.0133  -0.0000   0.0000   0.0000  -0.0000   0.1847   0.0000
 261 O_a :3d2+  -0.0000  -0.0155   0.0044   0.0271   0.1284   0.0000  -0.1249
 283 O_a :4f3-  -0.0000   0.0007   0.0030   0.0177   0.0049   0.0000   0.0082
 287 O_a :4f1+  -0.0000   0.0023  -0.0018  -0.0072   0.0202  -0.0000  -0.0148
 288 O_a :4f2+  -0.0002  -0.0000   0.0000  -0.0000   0.0000  -0.0105  -0.0000
 289 O_a :4f3+  -0.0000   0.0093  -0.0024  -0.0022  -0.0066  -0.0000   0.0161

    Orbital        21       22       23       24       25       26
   2 Cl_a:1s    -0.0106  -0.0015   0.0000  -0.0032  -0.0000  -0.0008
   3 Cl_a:1s    -0.0354  -0.0026  -0.0000  -0.0117  -0.0000  -0.0116
   5 Cl_a:1s     0.1038  -0.0062  -0.0000   0.0706  -0.0000   0.0047
   8 Cl_a:1s     0.7418  -0.3360  -0.0000  -0.3374  -0.0000  -0.2580
   9 Cl_a:1s    -1.0245   0.1428  -0.0000  -7.3670   0.0000  -2.4627
  10 Cl_a:1s    -8.4636  -0.9339  -0.0000 -10.0029  -0.0000 -16.0441
  14 Cl_a:2px   -0.0038  -0.0056   0.0000   0.0162  -0.0000  -0.0029
  15 Cl_a:2py   -0.0182   0.0122  -0.0000   0.0361   0.0000  -0.0076
  20 Cl_a:2px    0.0354   0.0204  -0.0000  -0.0226   0.0000   0.0462
  21 Cl_a:2py    0.1131   0.0091  -0.0000  -0.0993   0.0000  -0.0060
  29 Cl_a:2px   -0.1606  -1.0825   0.0000   0.4126  -0.0000   0.7645
  30 Cl_a:2py   -0.1073   0.3321  -0.0000  -1.8043   0.0000  -0.5493
  31 Cl_a:2pz    0.0000  -0.0000  -0.7778   0.0000   0.6617  -0.0000
  32 Cl_a:2px    0.2001  -3.5650   0.0000   0.8612   0.0000   0.8559
  33 Cl_a:2py    0.8805   0.3572  -0.0000  -2.4749  -0.0000  -2.8278
  34 Cl_a:2pz   -0.0000  -0.0000  -3.0620  -0.0000   1.5836  -0.0000
  35 Cl_a:2px   -4.6643   4.9723  -0.0000  -3.4826  -0.0000  -9.4455
  36 Cl_a:2py   -4.4485  -0.6299   0.0000   1.5650   0.0000  -1.1044
  37 Cl_a:2pz   -0.0000  -0.0000   4.5645  -0.0000  -2.4660  -0.0000
  58 Cl_a:3d2-   0.0141   0.0264  -0.0000  -0.0263  -0.0000   0.0120
  60 Cl_a:3d0   -0.0208  -0.0086  -0.0000   0.0237  -0.0000   0.0050
  62 Cl_a:3d2+  -0.0252  -0.0004   0.0000   0.0273   0.0000  -0.0019
  63 Cl_a:3d2-  -0.0757  -0.2251   0.0000  -0.0023  -0.0000   0.2292
  64 Cl_a:3d1-   0.0000  -0.0000  -0.1815   0.0000   0.1533  -0.0000
  65 Cl_a:3d0    0.0851  -0.0377  -0.0000   0.2509  -0.0000  -0.0305
  66 Cl_a:3d1+  -0.0000  -0.0000  -0.0202  -0.0000   0.0407  -0.0000
  67 Cl_a:3d2+   0.0693  -0.2420   0.0000   0.4150   0.0000   0.2033
  68 Cl_a:3d2-   0.0148  -0.5012   0.0000   0.2113  -0.0000  -0.0245
  69 Cl_a:3d1-  -0.0000  -0.0000  -0.5121  -0.0000   0.3027  -0.0000
  70 Cl_a:3d0   -0.1596   0.0841   0.0000   0.0919   0.0000   0.1683
  71 Cl_a:3d1+   0.0000   0.0000  -0.1709   0.0000  -0.0418   0.0000
  72 Cl_a:3d2+  -0.0774  -0.2793   0.0000   0.2287  -0.0000   0.3199
  94 Cl_a:4f3-  -0.0016   0.0111  -0.0000   0.0009  -0.0000  -0.0072
  97 Cl_a:4f0   -0.0000  -0.0000  -0.0111   0.0000   0.0030  -0.0000
 100 Cl_a:4f3+   0.0038  -0.0163   0.0000   0.0097  -0.0000  -0.0056
 101 Cl_a:4f3-   0.0093  -0.0714   0.0000   0.0565   0.0000   0.0635
 102 Cl_a:4f2-  -0.0000  -0.0000  -0.0130  -0.0000   0.0047  -0.0000
 103 Cl_a:4f1-   0.0073  -0.0237  -0.0000   0.0552  -0.0000   0.0084
 104 Cl_a:4f0   -0.0000   0.0000   0.0400  -0.0000  -0.0152   0.0000
 105 Cl_a:4f1+   0.0087   0.0173  -0.0000   0.0076   0.0000  -0.0135
 106 Cl_a:4f2+  -0.0000   0.0000   0.0421  -0.0000  -0.0290   0.0000
 107 Cl_a:4f3+   0.0060   0.0384  -0.0000   0.0039   0.0000  -0.0205
 109 N_a :1s     0.0142  -0.0086  -0.0000  -0.0491   0.0000   0.0081
 111 N_a :1s    -0.0375   0.0654  -0.0000   0.0348  -0.0000   0.1560
 114 N_a :1s    -0.5136   0.7882   0.0000   1.9841   0.0000   1.4660
 115 N_a :1s    -0.6440   0.4980   0.0000   9.0934  -0.0000  10.0820
 116 N_a :1s    -2.9452   1.8416   0.0000   0.5969   0.0000   8.1012
 117 N_a :2px   -0.0075   0.0030  -0.0000   0.0157   0.0000  -0.0109
 118 N_a :2py   -0.0235   0.0104   0.0000   0.0208  -0.0000  -0.0144
 119 N_a :2pz   -0.0000   0.0000   0.0004  -0.0000   0.0485   0.0000
 123 N_a :2px   -0.0111   0.0631  -0.0000  -0.0037   0.0000   0.0949
 124 N_a :2py   -0.0028   0.0174  -0.0000  -0.0821   0.0000   0.0052
 125 N_a :2pz   -0.0000  -0.0000   0.0286  -0.0000   0.0114  -0.0000
 132 N_a :2px    0.0193   0.8258  -0.0000  -0.3614   0.0000  -0.5174
 133 N_a :2py   -0.1422  -1.0767   0.0000   0.2338  -0.0000  -0.2081
 134 N_a :2pz   -0.0000   0.0000   0.8520  -0.0000  -0.4316   0.0000
 135 N_a :2px   -3.4351   3.1618  -0.0000  -0.7377  -0.0000  -2.7389
 136 N_a :2py   -4.9222  -0.9116   0.0000  -1.6622   0.0000   0.0729
 137 N_a :2pz    0.0000   0.0000   2.2410   0.0000   2.2471   0.0000
 138 N_a :2px    7.0127  -3.0387   0.0000   7.9390   0.0000  13.0030
 139 N_a :2py    7.0560  -0.3356   0.0000  -1.6800   0.0000  12.3640
 140 N_a :2pz   -0.0000   0.0000  -2.2931  -0.0000   7.6224   0.0000
 156 N_a :3d2-  -0.0419   0.0083   0.0000   0.0033   0.0000   0.0095
 158 N_a :3d0    0.0258   0.0024  -0.0000  -0.0112  -0.0000  -0.0116
 159 N_a :3d1+  -0.0000   0.0000   0.0154  -0.0000  -0.0136   0.0000
 160 N_a :3d2+   0.0372   0.0411  -0.0000  -0.0098   0.0000   0.0465
 161 N_a :3d2-  -0.1919  -0.5345   0.0000   0.2928  -0.0000   0.3021
 162 N_a :3d1-  -0.0000  -0.0000  -0.2546  -0.0000   0.3221  -0.0000
 163 N_a :3d0    0.0227   0.0510   0.0000   0.0351   0.0000  -0.0798
 164 N_a :3d1+   0.0000   0.0000   0.0123   0.0000  -0.0762   0.0000
 165 N_a :3d2+   0.2193  -0.1684   0.0000   0.3967  -0.0000   0.1750
 166 N_a :3d2-  -0.4398  -0.9625   0.0000   0.5188   0.0000   0.6984
 167 N_a :3d1-  -0.0000  -0.0000  -0.6626  -0.0000   0.5214  -0.0000
 168 N_a :3d0    0.0297   0.0983  -0.0000  -0.4162   0.0000   0.0932
 169 N_a :3d1+  -0.0000  -0.0000  -0.1759  -0.0000   1.0001  -0.0000
 170 N_a :3d2+  -0.8426  -0.0914   0.0000   0.2742   0.0000  -0.0491
 185 N_a :4f3-  -0.0115  -0.0016   0.0000  -0.0111  -0.0000  -0.0115
 186 N_a :4f2-   0.0000  -0.0000  -0.0002   0.0000   0.0155   0.0000
 187 N_a :4f1-  -0.0111   0.0071   0.0000  -0.0045   0.0000   0.0019
 189 N_a :4f1+  -0.0039   0.0107   0.0000   0.0044   0.0000  -0.0053
 191 N_a :4f3+  -0.0047   0.0217   0.0000   0.0033  -0.0000   0.0242
 192 N_a :4f3-  -0.0124   0.0026   0.0000  -0.1283   0.0000   0.0076
 193 N_a :4f2-  -0.0000  -0.0000   0.0457  -0.0000  -0.0356  -0.0000
 194 N_a :4f1-  -0.0343   0.0411  -0.0000  -0.0261  -0.0000  -0.0218
 195 N_a :4f0    0.0000  -0.0000  -0.0724   0.0000   0.0493   0.0000
 196 N_a :4f1+  -0.0571  -0.0053   0.0000   0.0017  -0.0000  -0.0031
 197 N_a :4f2+  -0.0000  -0.0000  -0.0124  -0.0000   0.0247  -0.0000
 198 N_a :4f3+  -0.0181  -0.0026   0.0000   0.0299   0.0000   0.0786
 200 O_a :1s     0.0047   0.0015   0.0000  -0.0142  -0.0000   0.0241
 202 O_a :1s     0.0264  -0.0707   0.0000  -0.0132  -0.0000  -0.1102
 205 O_a :1s     0.3125  -0.5001   0.0000  -0.2656  -0.0000  -0.6700
 206 O_a :1s     1.8376   0.1164  -0.0000  -2.3194   0.0000  -3.7598
 207 O_a :1s    11.4697  -1.7365   0.0000   7.4828  -0.0000   3.6781
 209 O_a :2py    0.0152  -0.0064   0.0000  -0.0220   0.0000   0.0206
 210 O_a :2pz    0.0000  -0.0000   0.0015   0.0000  -0.0261   0.0000
 214 O_a :2px   -0.0308   0.0367   0.0000  -0.0033  -0.0000   0.0596
 215 O_a :2py    0.0233   0.0106  -0.0000   0.0159  -0.0000   0.0218
 216 O_a :2pz    0.0000  -0.0000  -0.0141   0.0000   0.0025  -0.0000
 223 O_a :2px   -0.2390   0.2634  -0.0000  -0.1161   0.0000   0.2972
 224 O_a :2py    0.3249   0.6271  -0.0000  -0.3496  -0.0000   0.2001
 225 O_a :2pz   -0.0000  -0.0000  -0.2802   0.0000   0.1208  -0.0000
 226 O_a :2px    2.1769   0.1845  -0.0000  -0.8968   0.0000   2.2690
 227 O_a :2py    2.9806   0.3603  -0.0000  -0.5049  -0.0000  -0.1437
 228 O_a :2pz   -0.0000   0.0000   0.6575  -0.0000  -3.2679   0.0000
 229 O_a :2px   -4.6356  -1.2391  -0.0000  -6.7682  -0.0000  -5.9673
 230 O_a :2py   -5.0426   0.9441  -0.0000  -1.0031  -0.0000 -15.1290
 231 O_a :2pz    0.0000   0.0000  -1.8084   0.0000  -6.4116   0.0000
 250 O_a :3d1+  -0.0000   0.0000   0.0105  -0.0000  -0.0027   0.0000
 251 O_a :3d2+   0.0089  -0.0036  -0.0000   0.0019   0.0000  -0.0132
 252 O_a :3d2-  -0.1011  -0.0771   0.0000   0.0996   0.0000  -0.0622
 253 O_a :3d1-   0.0000   0.0000   0.0269   0.0000  -0.0716   0.0000
 254 O_a :3d0    0.0263  -0.0330  -0.0000  -0.0420  -0.0000   0.0594
 255 O_a :3d1+  -0.0000   0.0000   0.0565  -0.0000   0.0250   0.0000
 256 O_a :3d2+   0.0070  -0.0880  -0.0000  -0.0106  -0.0000  -0.0549
 257 O_a :3d2-  -0.2816   0.0309  -0.0000   0.1286  -0.0000  -0.1866
 258 O_a :3d1-   0.0000   0.0000  -0.0471   0.0000  -0.0713   0.0000
 259 O_a :3d0    0.2884  -0.0555  -0.0000  -0.0215  -0.0000   0.1782
 260 O_a :3d1+   0.0000   0.0000  -0.1631   0.0000   0.2691   0.0000
 261 O_a :3d2+  -0.1058  -0.2851  -0.0000   0.1120  -0.0000  -0.1045
 283 O_a :4f3-   0.0334   0.0064   0.0000  -0.0128  -0.0000   0.0049
 284 O_a :4f2-  -0.0000  -0.0000  -0.0085  -0.0000   0.0260  -0.0000
 285 O_a :4f1-  -0.0061   0.0107  -0.0000   0.0009   0.0000  -0.0086
 286 O_a :4f0   -0.0000  -0.0000   0.0026  -0.0000   0.0168  -0.0000
 287 O_a :4f1+  -0.0284   0.0110   0.0000   0.0057   0.0000  -0.0279
 288 O_a :4f2+  -0.0000  -0.0000   0.0046  -0.0000  -0.0362  -0.0000
 289 O_a :4f3+   0.0047   0.0352   0.0000  -0.0075   0.0000   0.0194

  Total CPU  time used in SIRIUS :  33.41 seconds
  Total wall time used in SIRIUS :  33.62 seconds

 
     Date and time (Linux)  : Sat Jul 27 19:45:26 2024
     Host name              : dn006                                   


                     .---------------------------------------.
                     | End of Wave Function Section (SIRIUS) |
                     `---------------------------------------'



                 .------------------------------------------------.
                 | Starting in Dynamic Property Section (RESPONS) |
                 `------------------------------------------------'


 ----------------------------------------------------------------------------------------
  RESPONSE  -  an MCSCF, MC-srDFT, DFT, SOPPA and SOPPA-srDFT response property program
 ----------------------------------------------------------------------------------------


 -------- OUTPUT FROM RESPONSE INPUT PROCESSING --------




 Quadratic Response calculation
 ------------------------------

 First hyperpolarizability calculation : HYPCAL= T

 Spin of operator A , ISPINA=    0
 Spin of operator B , ISPINB=    0
 Spin of operator C , ISPINC=    0

  5 B-frequencies  0.000000D+00  6.344563D-03  1.268913D-02  1.903369D-02  2.537825D-02
  5 C-frequencies  0.000000D+00  6.344563D-03  1.268913D-02  1.903369D-02  2.537825D-02


 Print level                                    : IPRHYP =   2
 Maximum number of iterations in lin.rsp. solver: MAXITL =  60
 Threshold for convergence of linear resp. eq.s : THCLR  = 1.000D-03
 Maximum iterations in optimal orbital algorithm: MAXITO =   5
 Direct one-index transformation                : DIROIT = T

    3 A OPERATORS OF SYMMETRY NO:    1 AND LABELS:

          XDIPLEN 
          YDIPLEN 
          ZDIPLEN 

    3 B OPERATORS OF SYMMETRY NO:    1 AND LABELS:

          XDIPLEN 
          YDIPLEN 
          ZDIPLEN 

    3 C OPERATORS OF SYMMETRY NO:    1 AND LABELS:

          XDIPLEN 
          YDIPLEN 
          ZDIPLEN 


   SCF energy         :     -588.770983526191344
 -- inactive part     :     -673.919403310644384
 -- nuclear repulsion :       85.148419784453068


                     ***************************************
                     *** RHF response calculation (TDHF) ***
                     ***************************************



 Linear response calculations for quadratic response
 - singlet property operator of symmetry    1  ( A  )


 Perturbation symmetry.     KSYMOP:           1
 Perturbation spin symmetry.TRPLET:           F
 Orbital variables.         KZWOPT:        4368
 Configuration variables.   KZCONF:           0
 Total number of variables. KZVAR :        4368


 QRLRVE -- linear response calculation for symmetry  1  ( A  )
 QRLRVE -- operator label : XDIPLEN 
 QRLRVE -- operator spin  :   0
 QRLRVE -- frequencies :  0.000000  0.006345  0.012689  0.019034  0.025378
                          0.031723  0.038067  0.044412  0.050757



 ---  SOLVING SETS OF LINEAR EQUATIONS FOR LINEAR RESPONSE PROPERTIES ---

 Operator symmetry = 1  ( A  ); triplet =   F

RSPORT:    2 out of    9 new trial vectors linear dependent

 ** RSPCTL MICROITERATION NUMBER    1

       No.  Residual tot.,    conf., and orb.    Bnorm      Frequency 
      ----------------------------------------------------------------
         1    4.26494D+00  0.00D+00  4.26D+00  4.10D+00    0.00000D+00
         2    4.26568D+00  0.00D+00  4.27D+00  4.10D+00    6.34456D-03
         3    4.26790D+00  0.00D+00  4.27D+00  4.11D+00    1.26891D-02
         4    4.27162D+00  0.00D+00  4.27D+00  4.12D+00    1.90337D-02
         5    4.27684D+00  0.00D+00  4.28D+00  4.13D+00    2.53783D-02
         6    4.28359D+00  0.00D+00  4.28D+00  4.15D+00    3.17228D-02
         7    4.29189D+00  0.00D+00  4.29D+00  4.16D+00    3.80674D-02
         8    4.30179D+00  0.00D+00  4.30D+00  4.19D+00    4.44119D-02
         9    4.31331D+00  0.00D+00  4.31D+00  4.21D+00    5.07565D-02

 ** RSPCTL MICROITERATION NUMBER    2

       No.  Residual tot.,    conf., and orb.    Bnorm      Frequency 
      ----------------------------------------------------------------
         1    1.26874D+00  0.00D+00  1.27D+00  5.09D+00    0.00000D+00
         2    1.26920D+00  0.00D+00  1.27D+00  5.09D+00    6.34456D-03
         3    1.27057D+00  0.00D+00  1.27D+00  5.10D+00    1.26891D-02
         4    1.27286D+00  0.00D+00  1.27D+00  5.11D+00    1.90337D-02
         5    1.27610D+00  0.00D+00  1.28D+00  5.13D+00    2.53783D-02
         6    1.28031D+00  0.00D+00  1.28D+00  5.16D+00    3.17228D-02
         7    1.28553D+00  0.00D+00  1.29D+00  5.19D+00    3.80674D-02
         8    1.29181D+00  0.00D+00  1.29D+00  5.23D+00    4.44119D-02
         9    1.29920D+00  0.00D+00  1.30D+00  5.28D+00    5.07565D-02

 ** RSPCTL MICROITERATION NUMBER    3

       No.  Residual tot.,    conf., and orb.    Bnorm      Frequency 
      ----------------------------------------------------------------
         1    3.27861D-01  0.00D+00  3.28D-01  5.24D+00    0.00000D+00
         2    3.28058D-01  0.00D+00  3.28D-01  5.24D+00    6.34456D-03
         3    3.28648D-01  0.00D+00  3.29D-01  5.25D+00    1.26891D-02
         4    3.29639D-01  0.00D+00  3.30D-01  5.27D+00    1.90337D-02
         5    3.31044D-01  0.00D+00  3.31D-01  5.29D+00    2.53783D-02
         6    3.32878D-01  0.00D+00  3.33D-01  5.32D+00    3.17228D-02
         7    3.35163D-01  0.00D+00  3.35D-01  5.36D+00    3.80674D-02
         8    3.37930D-01  0.00D+00  3.38D-01  5.40D+00    4.44119D-02
         9    3.41216D-01  0.00D+00  3.41D-01  5.45D+00    5.07565D-02

 ** RSPCTL MICROITERATION NUMBER    4

       No.  Residual tot.,    conf., and orb.    Bnorm      Frequency 
      ----------------------------------------------------------------
         1    9.32180D-02  0.00D+00  9.32D-02  5.25D+00    0.00000D+00
         2    9.33038D-02  0.00D+00  9.33D-02  5.25D+00    6.34456D-03
         3    9.35623D-02  0.00D+00  9.36D-02  5.26D+00    1.26891D-02
         4    9.39974D-02  0.00D+00  9.40D-02  5.28D+00    1.90337D-02
         5    9.46152D-02  0.00D+00  9.46D-02  5.30D+00    2.53783D-02
         6    9.54251D-02  0.00D+00  9.54D-02  5.33D+00    3.17228D-02
         7    9.64392D-02  0.00D+00  9.64D-02  5.36D+00    3.80674D-02
         8    9.76739D-02  0.00D+00  9.77D-02  5.41D+00    4.44119D-02
         9    9.91494D-02  0.00D+00  9.91D-02  5.46D+00    5.07565D-02

 ** RSPCTL MICROITERATION NUMBER    5

       No.  Residual tot.,    conf., and orb.    Bnorm      Frequency 
      ----------------------------------------------------------------
         1    2.14741D-02  0.00D+00  2.15D-02  5.25D+00    0.00000D+00
         2    2.14977D-02  0.00D+00  2.15D-02  5.25D+00    6.34456D-03
         3    2.15689D-02  0.00D+00  2.16D-02  5.26D+00    1.26891D-02
         4    2.16890D-02  0.00D+00  2.17D-02  5.28D+00    1.90337D-02
         5    2.18600D-02  0.00D+00  2.19D-02  5.30D+00    2.53783D-02
         6    2.20848D-02  0.00D+00  2.21D-02  5.33D+00    3.17228D-02
         7    2.23676D-02  0.00D+00  2.24D-02  5.36D+00    3.80674D-02
         8    2.27135D-02  0.00D+00  2.27D-02  5.41D+00    4.44119D-02
         9    2.31295D-02  0.00D+00  2.31D-02  5.46D+00    5.07565D-02

 ** RSPCTL MICROITERATION NUMBER    6

       No.  Residual tot.,    conf., and orb.    Bnorm      Frequency 
      ----------------------------------------------------------------
         1    3.15207D-03  0.00D+00  3.15D-03  5.25D+00    0.00000D+00
         2    3.15535D-03  0.00D+00  3.16D-03  5.25D+00    6.34456D-03
         3    3.16523D-03  0.00D+00  3.17D-03  5.26D+00    1.26891D-02
         4    3.18186D-03  0.00D+00  3.18D-03  5.28D+00    1.90337D-02
         5    3.20551D-03  0.00D+00  3.21D-03  5.30D+00    2.53783D-02
         6    3.23655D-03  0.00D+00  3.24D-03  5.33D+00    3.17228D-02
         7    3.27551D-03  0.00D+00  3.28D-03  5.36D+00    3.80674D-02
         8    3.32306D-03  0.00D+00  3.32D-03  5.41D+00    4.44119D-02
         9    3.38008D-03  0.00D+00  3.38D-03  5.46D+00    5.07565D-02

 *** THE REQUESTED    9 SOLUTION VECTORS CONVERGED

 Convergence of RSP solution vectors, threshold = 1.00D-03
 ---------------------------------------------------------------
 (dimension of paired reduced space:  104)
 RSP solution vector no.    1; norm of residual   6.01D-04
 RSP solution vector no.    2; norm of residual   6.01D-04
 RSP solution vector no.    3; norm of residual   6.02D-04
 RSP solution vector no.    4; norm of residual   6.03D-04
 RSP solution vector no.    5; norm of residual   6.05D-04
 RSP solution vector no.    6; norm of residual   6.08D-04
 RSP solution vector no.    7; norm of residual   6.11D-04
 RSP solution vector no.    8; norm of residual   6.15D-04
 RSP solution vector no.    9; norm of residual   6.19D-04

 *** RSPCTL MICROITERATIONS CONVERGED

@ QRLRVE: SINGLET SOLUTION FOR SYMMETRY    1  ( A  )    LABEL   XDIPLEN     FREQUENCY   0.000000D+00

@ QRLRVE:  << XDIPLEN  ; XDIPLEN  >> (   0.00000):     31.7260767975    

@ QRLRVE:  << YDIPLEN  ; XDIPLEN  >> (   0.00000):     12.8466709993    

@ QRLRVE:  << ZDIPLEN  ; XDIPLEN  >> (   0.00000):    6.127175365431E-16

@ QRLRVE: SINGLET SOLUTION FOR SYMMETRY    1  ( A  )    LABEL   XDIPLEN     FREQUENCY   0.634456D-02

@ QRLRVE:  << XDIPLEN  ; XDIPLEN  >> (   0.00634):     31.7331626944    

@ QRLRVE:  << YDIPLEN  ; XDIPLEN  >> (   0.00634):     12.8547438923    

@ QRLRVE:  << ZDIPLEN  ; XDIPLEN  >> (   0.00634):    6.325219803256E-16

@ QRLRVE: SINGLET SOLUTION FOR SYMMETRY    1  ( A  )    LABEL   XDIPLEN     FREQUENCY   0.126891D-01

@ QRLRVE:  << XDIPLEN  ; XDIPLEN  >> (   0.01269):     31.7544598359    

@ QRLRVE:  << YDIPLEN  ; XDIPLEN  >> (   0.01269):     12.8790333109    

@ QRLRVE:  << ZDIPLEN  ; XDIPLEN  >> (   0.01269):    6.925648182814E-16

@ QRLRVE: SINGLET SOLUTION FOR SYMMETRY    1  ( A  )    LABEL   XDIPLEN     FREQUENCY   0.190337D-01

@ QRLRVE:  << XDIPLEN  ; XDIPLEN  >> (   0.01903):     31.7900873855    

@ QRLRVE:  << YDIPLEN  ; XDIPLEN  >> (   0.01903):     12.9197532076    

@ QRLRVE:  << ZDIPLEN  ; XDIPLEN  >> (   0.01903):    7.947658628321E-16

@ QRLRVE: SINGLET SOLUTION FOR SYMMETRY    1  ( A  )    LABEL   XDIPLEN     FREQUENCY   0.253783D-01

@ QRLRVE:  << XDIPLEN  ; XDIPLEN  >> (   0.02538):     31.8402466885    

@ QRLRVE:  << YDIPLEN  ; XDIPLEN  >> (   0.02538):     12.9772660391    

@ QRLRVE:  << ZDIPLEN  ; XDIPLEN  >> (   0.02538):    9.424313855824E-16

@ QRLRVE: SINGLET SOLUTION FOR SYMMETRY    1  ( A  )    LABEL   XDIPLEN     FREQUENCY   0.317228D-01

@ QRLRVE:  << XDIPLEN  ; XDIPLEN  >> (   0.03172):     31.9052255164    

@ QRLRVE:  << YDIPLEN  ; XDIPLEN  >> (   0.03172):     13.0520918730    

@ QRLRVE:  << ZDIPLEN  ; XDIPLEN  >> (   0.03172):    1.140422191425E-15

@ QRLRVE: SINGLET SOLUTION FOR SYMMETRY    1  ( A  )    LABEL   XDIPLEN     FREQUENCY   0.380674D-01

@ QRLRVE:  << XDIPLEN  ; XDIPLEN  >> (   0.03807):     31.9854042862    

@ QRLRVE:  << YDIPLEN  ; XDIPLEN  >> (   0.03807):     13.1449217765    

@ QRLRVE:  << ZDIPLEN  ; XDIPLEN  >> (   0.03807):    1.395406190921E-15

@ QRLRVE: SINGLET SOLUTION FOR SYMMETRY    1  ( A  )    LABEL   XDIPLEN     FREQUENCY   0.444119D-01

@ QRLRVE:  << XDIPLEN  ; XDIPLEN  >> (   0.04441):     32.0812645644    

@ QRLRVE:  << YDIPLEN  ; XDIPLEN  >> (   0.04441):     13.2566361839    

@ QRLRVE:  << ZDIPLEN  ; XDIPLEN  >> (   0.04441):    1.716214903850E-15

@ QRLRVE: SINGLET SOLUTION FOR SYMMETRY    1  ( A  )    LABEL   XDIPLEN     FREQUENCY   0.507565D-01

@ QRLRVE:  << XDIPLEN  ; XDIPLEN  >> (   0.05076):     32.1934002911    

@ QRLRVE:  << YDIPLEN  ; XDIPLEN  >> (   0.05076):     13.3883292491    

@ QRLRVE:  << ZDIPLEN  ; XDIPLEN  >> (   0.05076):    2.114332320014E-15


 QRLRVE -- linear response calculation for symmetry  1  ( A  )
 QRLRVE -- operator label : YDIPLEN 
 QRLRVE -- operator spin  :   0
 QRLRVE -- frequencies :  0.000000  0.006345  0.012689  0.019034  0.025378
                          0.031723  0.038067  0.044412  0.050757



 ---  SOLVING SETS OF LINEAR EQUATIONS FOR LINEAR RESPONSE PROPERTIES ---

 Operator symmetry = 1  ( A  ); triplet =   F

RSPORT:    2 out of    9 new trial vectors linear dependent

 ** RSPCTL MICROITERATION NUMBER    1

       No.  Residual tot.,    conf., and orb.    Bnorm      Frequency 
      ----------------------------------------------------------------
         1    4.88205D+00  0.00D+00  4.88D+00  5.61D+00    0.00000D+00
         2    4.88374D+00  0.00D+00  4.88D+00  5.61D+00    6.34456D-03
         3    4.88882D+00  0.00D+00  4.89D+00  5.62D+00    1.26891D-02
         4    4.89732D+00  0.00D+00  4.90D+00  5.64D+00    1.90337D-02
         5    4.90929D+00  0.00D+00  4.91D+00  5.67D+00    2.53783D-02
         6    4.92477D+00  0.00D+00  4.92D+00  5.70D+00    3.17228D-02
         7    4.94387D+00  0.00D+00  4.94D+00  5.75D+00    3.80674D-02
         8    4.96667D+00  0.00D+00  4.97D+00  5.80D+00    4.44119D-02
         9    4.99332D+00  0.00D+00  4.99D+00  5.86D+00    5.07565D-02

 ** RSPCTL MICROITERATION NUMBER    2

       No.  Residual tot.,    conf., and orb.    Bnorm      Frequency 
      ----------------------------------------------------------------
         1    1.69693D+00  0.00D+00  1.70D+00  7.42D+00    0.00000D+00
         2    1.69822D+00  0.00D+00  1.70D+00  7.43D+00    6.34456D-03
         3    1.70208D+00  0.00D+00  1.70D+00  7.45D+00    1.26891D-02
         4    1.70857D+00  0.00D+00  1.71D+00  7.49D+00    1.90337D-02
         5    1.71774D+00  0.00D+00  1.72D+00  7.54D+00    2.53783D-02
         6    1.72970D+00  0.00D+00  1.73D+00  7.60D+00    3.17228D-02
         7    1.74457D+00  0.00D+00  1.74D+00  7.68D+00    3.80674D-02
         8    1.76251D+00  0.00D+00  1.76D+00  7.78D+00    4.44119D-02
         9    1.78374D+00  0.00D+00  1.78D+00  7.89D+00    5.07565D-02

 ** RSPCTL MICROITERATION NUMBER    3

       No.  Residual tot.,    conf., and orb.    Bnorm      Frequency 
      ----------------------------------------------------------------
         1    5.04099D-01  0.00D+00  5.04D-01  7.69D+00    0.00000D+00
         2    5.04727D-01  0.00D+00  5.05D-01  7.70D+00    6.34456D-03
         3    5.06622D-01  0.00D+00  5.07D-01  7.72D+00    1.26891D-02
         4    5.09812D-01  0.00D+00  5.10D-01  7.76D+00    1.90337D-02
         5    5.14345D-01  0.00D+00  5.14D-01  7.82D+00    2.53783D-02
         6    5.20292D-01  0.00D+00  5.20D-01  7.90D+00    3.17228D-02
         7    5.27748D-01  0.00D+00  5.28D-01  7.99D+00    3.80674D-02
         8    5.36833D-01  0.00D+00  5.37D-01  8.10D+00    4.44119D-02
         9    5.47699D-01  0.00D+00  5.48D-01  8.23D+00    5.07565D-02

 ** RSPCTL MICROITERATION NUMBER    4

       No.  Residual tot.,    conf., and orb.    Bnorm      Frequency 
      ----------------------------------------------------------------
         1    1.23324D-01  0.00D+00  1.23D-01  7.70D+00    0.00000D+00
         2    1.23468D-01  0.00D+00  1.23D-01  7.71D+00    6.34456D-03
         3    1.23902D-01  0.00D+00  1.24D-01  7.74D+00    1.26891D-02
         4    1.24633D-01  0.00D+00  1.25D-01  7.78D+00    1.90337D-02
         5    1.25676D-01  0.00D+00  1.26D-01  7.83D+00    2.53783D-02
         6    1.27048D-01  0.00D+00  1.27D-01  7.91D+00    3.17228D-02
         7    1.28775D-01  0.00D+00  1.29D-01  8.00D+00    3.80674D-02
         8    1.30892D-01  0.00D+00  1.31D-01  8.11D+00    4.44119D-02
         9    1.33440D-01  0.00D+00  1.33D-01  8.24D+00    5.07565D-02

 ** RSPCTL MICROITERATION NUMBER    5

       No.  Residual tot.,    conf., and orb.    Bnorm      Frequency 
      ----------------------------------------------------------------
         1    2.17111D-02  0.00D+00  2.17D-02  7.70D+00    0.00000D+00
         2    2.17342D-02  0.00D+00  2.17D-02  7.71D+00    6.34456D-03
         3    2.18038D-02  0.00D+00  2.18D-02  7.74D+00    1.26891D-02
         4    2.19214D-02  0.00D+00  2.19D-02  7.78D+00    1.90337D-02
         5    2.20893D-02  0.00D+00  2.21D-02  7.83D+00    2.53783D-02
         6    2.23111D-02  0.00D+00  2.23D-02  7.91D+00    3.17228D-02
         7    2.25914D-02  0.00D+00  2.26D-02  8.00D+00    3.80674D-02
         8    2.29366D-02  0.00D+00  2.29D-02  8.11D+00    4.44119D-02
         9    2.33548D-02  0.00D+00  2.34D-02  8.25D+00    5.07565D-02

 ** RSPCTL MICROITERATION NUMBER    6

       No.  Residual tot.,    conf., and orb.    Bnorm      Frequency 
      ----------------------------------------------------------------
         1    3.91825D-03  0.00D+00  3.92D-03  7.70D+00    0.00000D+00
         2    3.92428D-03  0.00D+00  3.92D-03  7.71D+00    6.34456D-03
         3    3.94250D-03  0.00D+00  3.94D-03  7.74D+00    1.26891D-02
         4    3.97330D-03  0.00D+00  3.97D-03  7.78D+00    1.90337D-02
         5    4.01738D-03  0.00D+00  4.02D-03  7.83D+00    2.53783D-02
         6    4.07571D-03  0.00D+00  4.08D-03  7.91D+00    3.17228D-02
         7    4.14965D-03  0.00D+00  4.15D-03  8.00D+00    3.80674D-02
         8    4.24097D-03  0.00D+00  4.24D-03  8.11D+00    4.44119D-02
         9    4.35194D-03  0.00D+00  4.35D-03  8.25D+00    5.07565D-02

 *** THE REQUESTED    9 SOLUTION VECTORS CONVERGED

 Convergence of RSP solution vectors, threshold = 1.00D-03
 ---------------------------------------------------------------
 (dimension of paired reduced space:  104)
 RSP solution vector no.    1; norm of residual   5.09D-04
 RSP solution vector no.    2; norm of residual   5.09D-04
 RSP solution vector no.    3; norm of residual   5.10D-04
 RSP solution vector no.    4; norm of residual   5.11D-04
 RSP solution vector no.    5; norm of residual   5.13D-04
 RSP solution vector no.    6; norm of residual   5.15D-04
 RSP solution vector no.    7; norm of residual   5.19D-04
 RSP solution vector no.    8; norm of residual   5.23D-04
 RSP solution vector no.    9; norm of residual   5.28D-04

 *** RSPCTL MICROITERATIONS CONVERGED

@ QRLRVE: SINGLET SOLUTION FOR SYMMETRY    1  ( A  )    LABEL   YDIPLEN     FREQUENCY   0.000000D+00

@ QRLRVE:  << XDIPLEN  ; YDIPLEN  >> (   0.00000):     12.8472852192    

@ QRLRVE:  << YDIPLEN  ; YDIPLEN  >> (   0.00000):     47.7891435931    

@ QRLRVE:  << ZDIPLEN  ; YDIPLEN  >> (   0.00000):   -2.603241618246E-15

@ QRLRVE: SINGLET SOLUTION FOR SYMMETRY    1  ( A  )    LABEL   YDIPLEN     FREQUENCY   0.634456D-02

@ QRLRVE:  << XDIPLEN  ; YDIPLEN  >> (   0.00634):     12.8553591527    

@ QRLRVE:  << YDIPLEN  ; YDIPLEN  >> (   0.00634):     47.8100200953    

@ QRLRVE:  << ZDIPLEN  ; YDIPLEN  >> (   0.00634):   -2.589723061258E-15

@ QRLRVE: SINGLET SOLUTION FOR SYMMETRY    1  ( A  )    LABEL   YDIPLEN     FREQUENCY   0.126891D-01

@ QRLRVE:  << XDIPLEN  ; YDIPLEN  >> (   0.01269):     12.8796517050    

@ QRLRVE:  << YDIPLEN  ; YDIPLEN  >> (   0.01269):     47.8728233171    

@ QRLRVE:  << ZDIPLEN  ; YDIPLEN  >> (   0.01269):   -2.548883288067E-15

@ QRLRVE: SINGLET SOLUTION FOR SYMMETRY    1  ( A  )    LABEL   YDIPLEN     FREQUENCY   0.190337D-01

@ QRLRVE:  << XDIPLEN  ; YDIPLEN  >> (   0.01903):     12.9203768656    

@ QRLRVE:  << YDIPLEN  ; YDIPLEN  >> (   0.01903):     47.9780786407    

@ QRLRVE:  << ZDIPLEN  ; YDIPLEN  >> (   0.01903):   -2.479859956132E-15

@ QRLRVE: SINGLET SOLUTION FOR SYMMETRY    1  ( A  )    LABEL   YDIPLEN     FREQUENCY   0.253783D-01

@ QRLRVE:  << XDIPLEN  ; YDIPLEN  >> (   0.02538):     12.9778971533    

@ QRLRVE:  << YDIPLEN  ; YDIPLEN  >> (   0.02538):     48.1266760341    

@ QRLRVE:  << ZDIPLEN  ; YDIPLEN  >> (   0.02538):   -2.381181777760E-15

@ QRLRVE: SINGLET SOLUTION FOR SYMMETRY    1  ( A  )    LABEL   YDIPLEN     FREQUENCY   0.317228D-01

@ QRLRVE:  << XDIPLEN  ; YDIPLEN  >> (   0.03172):     13.0527327250    

@ QRLRVE:  << YDIPLEN  ; YDIPLEN  >> (   0.03172):     48.3198922916    

@ QRLRVE:  << ZDIPLEN  ; YDIPLEN  >> (   0.03172):   -2.250715298657E-15

@ QRLRVE: SINGLET SOLUTION FOR SYMMETRY    1  ( A  )    LABEL   YDIPLEN     FREQUENCY   0.380674D-01

@ QRLRVE:  << XDIPLEN  ; YDIPLEN  >> (   0.03807):     13.1455747654    

@ QRLRVE:  << YDIPLEN  ; YDIPLEN  >> (   0.03807):     48.5594237238    

@ QRLRVE:  << ZDIPLEN  ; YDIPLEN  >> (   0.03807):   -2.085585886236E-15

@ QRLRVE: SINGLET SOLUTION FOR SYMMETRY    1  ( A  )    LABEL   YDIPLEN     FREQUENCY   0.444119D-01

@ QRLRVE:  << XDIPLEN  ; YDIPLEN  >> (   0.04441):     13.2573038575    

@ QRLRVE:  << YDIPLEN  ; YDIPLEN  >> (   0.04441):     48.8474310062    

@ QRLRVE:  << ZDIPLEN  ; YDIPLEN  >> (   0.04441):   -1.882067908320E-15

@ QRLRVE: SINGLET SOLUTION FOR SYMMETRY    1  ( A  )    LABEL   YDIPLEN     FREQUENCY   0.507565D-01

@ QRLRVE:  << XDIPLEN  ; YDIPLEN  >> (   0.05076):     13.3890143386    

@ QRLRVE:  << YDIPLEN  ; YDIPLEN  >> (   0.05076):     49.1865986328    

@ QRLRVE:  << ZDIPLEN  ; YDIPLEN  >> (   0.05076):   -1.635436826590E-15


 QRLRVE -- linear response calculation for symmetry  1  ( A  )
 QRLRVE -- operator label : ZDIPLEN 
 QRLRVE -- operator spin  :   0
 QRLRVE -- frequencies :  0.000000  0.006345  0.012689  0.019034  0.025378
[...]
@ B-freq = 0.019034  C-freq = 0.019034     beta(Y;Z,Y) =      0.00000000
@ B-freq = 0.019034  C-freq = 0.019034     beta(Z;Z,Y) =     43.35883006
@ B-freq = 0.025378  C-freq = 0.019034     beta(X;Z,Y) =      0.00000000
@ B-freq = 0.025378  C-freq = 0.019034     beta(Y;Z,Y) =      0.00000000
@ B-freq = 0.025378  C-freq = 0.019034     beta(Z;Z,Y) =     43.45443571
@ B-freq = 0.000000  C-freq = 0.025378     beta(X;X,Y) = beta(X,Y,X)
@ B-freq = 0.000000  C-freq = 0.025378     beta(Y;X,Y) = beta(Y,Y,X)
@ B-freq = 0.000000  C-freq = 0.025378     beta(Z;X,Y) = beta(Z,Y,X)
@ B-freq = 0.006345  C-freq = 0.025378     beta(X;X,Y) = beta(X,Y,X)
@ B-freq = 0.006345  C-freq = 0.025378     beta(Y;X,Y) = beta(Y,Y,X)
@ B-freq = 0.006345  C-freq = 0.025378     beta(Z;X,Y) = beta(Z,Y,X)
@ B-freq = 0.012689  C-freq = 0.025378     beta(X;X,Y) = beta(X,Y,X)
@ B-freq = 0.012689  C-freq = 0.025378     beta(Y;X,Y) = beta(Y,Y,X)
@ B-freq = 0.012689  C-freq = 0.025378     beta(Z;X,Y) = beta(Z,Y,X)
@ B-freq = 0.019034  C-freq = 0.025378     beta(X;X,Y) = beta(X,Y,X)
@ B-freq = 0.019034  C-freq = 0.025378     beta(Y;X,Y) = beta(Y,Y,X)
@ B-freq = 0.019034  C-freq = 0.025378     beta(Z;X,Y) = beta(Z,Y,X)
@ B-freq = 0.025378  C-freq = 0.025378     beta(X;X,Y) = beta(X,Y,X)
@ B-freq = 0.025378  C-freq = 0.025378     beta(Y;X,Y) = beta(Y,Y,X)
@ B-freq = 0.025378  C-freq = 0.025378     beta(Z;X,Y) = beta(Z,Y,X)
@ B-freq = 0.000000  C-freq = 0.025378     beta(X;Y,Y) = beta(X,Y,Y)
@ B-freq = 0.000000  C-freq = 0.025378     beta(Y;Y,Y) = beta(Y,Y,Y)
@ B-freq = 0.000000  C-freq = 0.025378     beta(Z;Y,Y) = beta(Z,Y,Y)
@ B-freq = 0.006345  C-freq = 0.025378     beta(X;Y,Y) = beta(X,Y,Y)
@ B-freq = 0.006345  C-freq = 0.025378     beta(Y;Y,Y) = beta(Y,Y,Y)
@ B-freq = 0.006345  C-freq = 0.025378     beta(Z;Y,Y) = beta(Z,Y,Y)
@ B-freq = 0.012689  C-freq = 0.025378     beta(X;Y,Y) = beta(X,Y,Y)
@ B-freq = 0.012689  C-freq = 0.025378     beta(Y;Y,Y) = beta(Y,Y,Y)
@ B-freq = 0.012689  C-freq = 0.025378     beta(Z;Y,Y) = beta(Z,Y,Y)
@ B-freq = 0.019034  C-freq = 0.025378     beta(X;Y,Y) = beta(X,Y,Y)
@ B-freq = 0.019034  C-freq = 0.025378     beta(Y;Y,Y) = beta(Y,Y,Y)
@ B-freq = 0.019034  C-freq = 0.025378     beta(Z;Y,Y) = beta(Z,Y,Y)
@ B-freq = 0.025378  C-freq = 0.025378     beta(X;Y,Y) =     -0.60335372
@ B-freq = 0.025378  C-freq = 0.025378     beta(Y;Y,Y) =     68.28058866
@ B-freq = 0.025378  C-freq = 0.025378     beta(Z;Y,Y) =      0.00000000
@ B-freq = 0.000000  C-freq = 0.025378     beta(X;Z,Y) =      0.00000000
@ B-freq = 0.000000  C-freq = 0.025378     beta(Y;Z,Y) =      0.00000000
@ B-freq = 0.000000  C-freq = 0.025378     beta(Z;Z,Y) =     43.44203739
@ B-freq = 0.006345  C-freq = 0.025378     beta(X;Z,Y) =      0.00000000
@ B-freq = 0.006345  C-freq = 0.025378     beta(Y;Z,Y) =      0.00000000
@ B-freq = 0.006345  C-freq = 0.025378     beta(Z;Z,Y) =     43.50013799
@ B-freq = 0.012689  C-freq = 0.025378     beta(X;Z,Y) =      0.00000000
@ B-freq = 0.012689  C-freq = 0.025378     beta(Y;Z,Y) =      0.00000000
@ B-freq = 0.012689  C-freq = 0.025378     beta(Z;Z,Y) =     43.57644455
@ B-freq = 0.019034  C-freq = 0.025378     beta(X;Z,Y) =      0.00000000
@ B-freq = 0.019034  C-freq = 0.025378     beta(Y;Z,Y) =      0.00000000
@ B-freq = 0.019034  C-freq = 0.025378     beta(Z;Z,Y) =     43.66462009
@ B-freq = 0.025378  C-freq = 0.025378     beta(X;Z,Y) =      0.00000000
@ B-freq = 0.025378  C-freq = 0.025378     beta(Y;Z,Y) =      0.00000000
@ B-freq = 0.025378  C-freq = 0.025378     beta(Z;Z,Y) =     43.75411751
@ B-freq = 0.000000  C-freq = 0.000000     beta(X;X,Z) = beta(Z,X,X)
@ B-freq = 0.000000  C-freq = 0.000000     beta(Y;X,Z) = beta(Z,Y,X)
@ B-freq = 0.000000  C-freq = 0.000000     beta(Z;X,Z) = beta(Z,Z,X)
@ B-freq = 0.006345  C-freq = 0.000000     beta(X;X,Z) = beta(X,Z,X)
@ B-freq = 0.006345  C-freq = 0.000000     beta(Y;X,Z) = beta(Y,Z,X)
@ B-freq = 0.006345  C-freq = 0.000000     beta(Z;X,Z) = beta(Z,Z,X)
@ B-freq = 0.012689  C-freq = 0.000000     beta(X;X,Z) = beta(X,Z,X)
@ B-freq = 0.012689  C-freq = 0.000000     beta(Y;X,Z) = beta(Y,Z,X)
@ B-freq = 0.012689  C-freq = 0.000000     beta(Z;X,Z) = beta(Z,Z,X)
@ B-freq = 0.019034  C-freq = 0.000000     beta(X;X,Z) = beta(X,Z,X)
@ B-freq = 0.019034  C-freq = 0.000000     beta(Y;X,Z) = beta(Y,Z,X)
@ B-freq = 0.019034  C-freq = 0.000000     beta(Z;X,Z) = beta(Z,Z,X)
@ B-freq = 0.025378  C-freq = 0.000000     beta(X;X,Z) = beta(X,Z,X)
@ B-freq = 0.025378  C-freq = 0.000000     beta(Y;X,Z) = beta(Y,Z,X)
@ B-freq = 0.025378  C-freq = 0.000000     beta(Z;X,Z) = beta(Z,Z,X)
@ B-freq = 0.000000  C-freq = 0.000000     beta(X;Y,Z) = beta(Z,Y,X)
@ B-freq = 0.000000  C-freq = 0.000000     beta(Y;Y,Z) = beta(Z,Y,Y)
@ B-freq = 0.000000  C-freq = 0.000000     beta(Z;Y,Z) = beta(Z,Z,Y)
@ B-freq = 0.006345  C-freq = 0.000000     beta(X;Y,Z) = beta(X,Z,Y)
@ B-freq = 0.006345  C-freq = 0.000000     beta(Y;Y,Z) = beta(Y,Z,Y)
@ B-freq = 0.006345  C-freq = 0.000000     beta(Z;Y,Z) = beta(Z,Z,Y)
@ B-freq = 0.012689  C-freq = 0.000000     beta(X;Y,Z) = beta(X,Z,Y)
@ B-freq = 0.012689  C-freq = 0.000000     beta(Y;Y,Z) = beta(Y,Z,Y)
@ B-freq = 0.012689  C-freq = 0.000000     beta(Z;Y,Z) = beta(Z,Z,Y)
@ B-freq = 0.019034  C-freq = 0.000000     beta(X;Y,Z) = beta(X,Z,Y)
@ B-freq = 0.019034  C-freq = 0.000000     beta(Y;Y,Z) = beta(Y,Z,Y)
@ B-freq = 0.019034  C-freq = 0.000000     beta(Z;Y,Z) = beta(Z,Z,Y)
@ B-freq = 0.025378  C-freq = 0.000000     beta(X;Y,Z) = beta(X,Z,Y)
@ B-freq = 0.025378  C-freq = 0.000000     beta(Y;Y,Z) = beta(Y,Z,Y)
@ B-freq = 0.025378  C-freq = 0.000000     beta(Z;Y,Z) = beta(Z,Z,Y)
@ B-freq = 0.000000  C-freq = 0.000000     beta(X;Z,Z) = beta(Z,Z,X)
@ B-freq = 0.000000  C-freq = 0.000000     beta(Y;Z,Z) = beta(Z,Z,Y)
@ B-freq = 0.000000  C-freq = 0.000000     beta(X;Z,Z) =     22.36354198
@ B-freq = 0.000000  C-freq = 0.000000     beta(Y;Z,Z) =     42.78729280
@ B-freq = 0.000000  C-freq = 0.000000     beta(Z;Z,Z) =      0.00000000
@ B-freq = 0.006345  C-freq = 0.000000     beta(X;Z,Z) =     22.38312154
@ B-freq = 0.006345  C-freq = 0.000000     beta(Y;Z,Z) =     42.82794325
@ B-freq = 0.006345  C-freq = 0.000000     beta(Z;Z,Z) =      0.00000000
@ B-freq = 0.012689  C-freq = 0.000000     beta(X;Z,Z) =     22.44197832
@ B-freq = 0.012689  C-freq = 0.000000     beta(Y;Z,Z) =     42.95011925
@ B-freq = 0.012689  C-freq = 0.000000     beta(Z;Z,Z) =      0.00000000
@ B-freq = 0.019034  C-freq = 0.000000     beta(X;Z,Z) =     22.54046072
@ B-freq = 0.019034  C-freq = 0.000000     beta(Y;Z,Z) =     43.15447628
@ B-freq = 0.019034  C-freq = 0.000000     beta(Z;Z,Z) =      0.00000000
@ B-freq = 0.025378  C-freq = 0.000000     beta(X;Z,Z) =     22.67912763
@ B-freq = 0.025378  C-freq = 0.000000     beta(Y;Z,Z) =     43.44203890
@ B-freq = 0.025378  C-freq = 0.000000     beta(Z;Z,Z) =      0.00000000
@ B-freq = 0.000000  C-freq = 0.006345     beta(X;X,Z) = beta(X,Z,X)
@ B-freq = 0.000000  C-freq = 0.006345     beta(Y;X,Z) = beta(Y,Z,X)
@ B-freq = 0.000000  C-freq = 0.006345     beta(Z;X,Z) = beta(Z,Z,X)
@ B-freq = 0.006345  C-freq = 0.006345     beta(X;X,Z) = beta(X,Z,X)
@ B-freq = 0.006345  C-freq = 0.006345     beta(Y;X,Z) = beta(Y,Z,X)
@ B-freq = 0.006345  C-freq = 0.006345     beta(Z;X,Z) = beta(Z,Z,X)
@ B-freq = 0.012689  C-freq = 0.006345     beta(X;X,Z) = beta(X,Z,X)
@ B-freq = 0.012689  C-freq = 0.006345     beta(Y;X,Z) = beta(Y,Z,X)
@ B-freq = 0.012689  C-freq = 0.006345     beta(Z;X,Z) = beta(Z,Z,X)
@ B-freq = 0.019034  C-freq = 0.006345     beta(X;X,Z) = beta(X,Z,X)
@ B-freq = 0.019034  C-freq = 0.006345     beta(Y;X,Z) = beta(Y,Z,X)
@ B-freq = 0.019034  C-freq = 0.006345     beta(Z;X,Z) = beta(Z,Z,X)
@ B-freq = 0.025378  C-freq = 0.006345     beta(X;X,Z) = beta(X,Z,X)
@ B-freq = 0.025378  C-freq = 0.006345     beta(Y;X,Z) = beta(Y,Z,X)
@ B-freq = 0.025378  C-freq = 0.006345     beta(Z;X,Z) = beta(Z,Z,X)
@ B-freq = 0.000000  C-freq = 0.006345     beta(X;Y,Z) = beta(X,Z,Y)
@ B-freq = 0.000000  C-freq = 0.006345     beta(Y;Y,Z) = beta(Y,Z,Y)
@ B-freq = 0.000000  C-freq = 0.006345     beta(Z;Y,Z) = beta(Z,Z,Y)
@ B-freq = 0.006345  C-freq = 0.006345     beta(X;Y,Z) = beta(X,Z,Y)
@ B-freq = 0.006345  C-freq = 0.006345     beta(Y;Y,Z) = beta(Y,Z,Y)
@ B-freq = 0.006345  C-freq = 0.006345     beta(Z;Y,Z) = beta(Z,Z,Y)
@ B-freq = 0.012689  C-freq = 0.006345     beta(X;Y,Z) = beta(X,Z,Y)
@ B-freq = 0.012689  C-freq = 0.006345     beta(Y;Y,Z) = beta(Y,Z,Y)
@ B-freq = 0.012689  C-freq = 0.006345     beta(Z;Y,Z) = beta(Z,Z,Y)
@ B-freq = 0.019034  C-freq = 0.006345     beta(X;Y,Z) = beta(X,Z,Y)
@ B-freq = 0.019034  C-freq = 0.006345     beta(Y;Y,Z) = beta(Y,Z,Y)
@ B-freq = 0.019034  C-freq = 0.006345     beta(Z;Y,Z) = beta(Z,Z,Y)
@ B-freq = 0.025378  C-freq = 0.006345     beta(X;Y,Z) = beta(X,Z,Y)
@ B-freq = 0.025378  C-freq = 0.006345     beta(Y;Y,Z) = beta(Y,Z,Y)
@ B-freq = 0.025378  C-freq = 0.006345     beta(Z;Y,Z) = beta(Z,Z,Y)
@ B-freq = 0.000000  C-freq = 0.006345     beta(X;Z,Z) = beta(X,Z,Z)
@ B-freq = 0.000000  C-freq = 0.006345     beta(Y;Z,Z) = beta(Y,Z,Z)
@ B-freq = 0.000000  C-freq = 0.006345     beta(Z;Z,Z) = beta(Z,Z,Z)
@ B-freq = 0.006345  C-freq = 0.006345     beta(X;Z,Z) =     22.43470561
@ B-freq = 0.006345  C-freq = 0.006345     beta(Y;Z,Z) =     42.93749644
@ B-freq = 0.006345  C-freq = 0.006345     beta(Z;Z,Z) =      0.00000000
@ B-freq = 0.012689  C-freq = 0.006345     beta(X;Z,Z) =     22.52604457
@ B-freq = 0.012689  C-freq = 0.006345     beta(Y;Z,Z) =     43.12966269
@ B-freq = 0.012689  C-freq = 0.006345     beta(Z;Z,Z) =      0.00000000
@ B-freq = 0.019034  C-freq = 0.006345     beta(X;Z,Z) =     22.65783033
@ B-freq = 0.019034  C-freq = 0.006345     beta(Y;Z,Z) =     43.40587526
@ B-freq = 0.019034  C-freq = 0.006345     beta(Z;Z,Z) =      0.00000000
@ B-freq = 0.025378  C-freq = 0.006345     beta(X;Z,Z) =     22.83098666
@ B-freq = 0.025378  C-freq = 0.006345     beta(Y;Z,Z) =     43.76798342
@ B-freq = 0.025378  C-freq = 0.006345     beta(Z;Z,Z) =      0.00000000
@ B-freq = 0.000000  C-freq = 0.012689     beta(X;X,Z) = beta(X,Z,X)
@ B-freq = 0.000000  C-freq = 0.012689     beta(Y;X,Z) = beta(Y,Z,X)
@ B-freq = 0.000000  C-freq = 0.012689     beta(Z;X,Z) = beta(Z,Z,X)
@ B-freq = 0.006345  C-freq = 0.012689     beta(X;X,Z) = beta(X,Z,X)
@ B-freq = 0.006345  C-freq = 0.012689     beta(Y;X,Z) = beta(Y,Z,X)
@ B-freq = 0.006345  C-freq = 0.012689     beta(Z;X,Z) = beta(Z,Z,X)
@ B-freq = 0.012689  C-freq = 0.012689     beta(X;X,Z) = beta(X,Z,X)
@ B-freq = 0.012689  C-freq = 0.012689     beta(Y;X,Z) = beta(Y,Z,X)
@ B-freq = 0.012689  C-freq = 0.012689     beta(Z;X,Z) = beta(Z,Z,X)
@ B-freq = 0.019034  C-freq = 0.012689     beta(X;X,Z) = beta(X,Z,X)
@ B-freq = 0.019034  C-freq = 0.012689     beta(Y;X,Z) = beta(Y,Z,X)
@ B-freq = 0.019034  C-freq = 0.012689     beta(Z;X,Z) = beta(Z,Z,X)
@ B-freq = 0.025378  C-freq = 0.012689     beta(X;X,Z) = beta(X,Z,X)
@ B-freq = 0.025378  C-freq = 0.012689     beta(Y;X,Z) = beta(Y,Z,X)
@ B-freq = 0.025378  C-freq = 0.012689     beta(Z;X,Z) = beta(Z,Z,X)
@ B-freq = 0.000000  C-freq = 0.012689     beta(X;Y,Z) = beta(X,Z,Y)
@ B-freq = 0.000000  C-freq = 0.012689     beta(Y;Y,Z) = beta(Y,Z,Y)
@ B-freq = 0.000000  C-freq = 0.012689     beta(Z;Y,Z) = beta(Z,Z,Y)
@ B-freq = 0.006345  C-freq = 0.012689     beta(X;Y,Z) = beta(X,Z,Y)
@ B-freq = 0.006345  C-freq = 0.012689     beta(Y;Y,Z) = beta(Y,Z,Y)
@ B-freq = 0.006345  C-freq = 0.012689     beta(Z;Y,Z) = beta(Z,Z,Y)
@ B-freq = 0.012689  C-freq = 0.012689     beta(X;Y,Z) = beta(X,Z,Y)
@ B-freq = 0.012689  C-freq = 0.012689     beta(Y;Y,Z) = beta(Y,Z,Y)
@ B-freq = 0.012689  C-freq = 0.012689     beta(Z;Y,Z) = beta(Z,Z,Y)
@ B-freq = 0.019034  C-freq = 0.012689     beta(X;Y,Z) = beta(X,Z,Y)
@ B-freq = 0.019034  C-freq = 0.012689     beta(Y;Y,Z) = beta(Y,Z,Y)
@ B-freq = 0.019034  C-freq = 0.012689     beta(Z;Y,Z) = beta(Z,Z,Y)
@ B-freq = 0.025378  C-freq = 0.012689     beta(X;Y,Z) = beta(X,Z,Y)
@ B-freq = 0.025378  C-freq = 0.012689     beta(Y;Y,Z) = beta(Y,Z,Y)
@ B-freq = 0.025378  C-freq = 0.012689     beta(Z;Y,Z) = beta(Z,Z,Y)
@ B-freq = 0.000000  C-freq = 0.012689     beta(X;Z,Z) = beta(X,Z,Z)
@ B-freq = 0.000000  C-freq = 0.012689     beta(Y;Z,Z) = beta(Y,Z,Z)
@ B-freq = 0.000000  C-freq = 0.012689     beta(Z;Z,Z) = beta(Z,Z,Z)
@ B-freq = 0.006345  C-freq = 0.012689     beta(X;Z,Z) = beta(X,Z,Z)
@ B-freq = 0.006345  C-freq = 0.012689     beta(Y;Z,Z) = beta(Y,Z,Z)
@ B-freq = 0.006345  C-freq = 0.012689     beta(Z;Z,Z) = beta(Z,Z,Z)
@ B-freq = 0.012689  C-freq = 0.012689     beta(X;Z,Z) =     22.65065072
@ B-freq = 0.012689  C-freq = 0.012689     beta(Y;Z,Z) =     43.39361585
@ B-freq = 0.012689  C-freq = 0.012689     beta(Z;Z,Z) =      0.00000000
@ B-freq = 0.019034  C-freq = 0.012689     beta(X;Z,Z) =     22.81685115
@ B-freq = 0.019034  C-freq = 0.012689     beta(Y;Z,Z) =     43.74423511
@ B-freq = 0.019034  C-freq = 0.012689     beta(Z;Z,Z) =      0.00000000
@ B-freq = 0.025378  C-freq = 0.012689     beta(X;Z,Z) =     23.02596185
@ B-freq = 0.025378  C-freq = 0.012689     beta(Y;Z,Z) =     44.18425986
@ B-freq = 0.025378  C-freq = 0.012689     beta(Z;Z,Z) =      0.00000000
@ B-freq = 0.000000  C-freq = 0.019034     beta(X;X,Z) = beta(X,Z,X)
@ B-freq = 0.000000  C-freq = 0.019034     beta(Y;X,Z) = beta(Y,Z,X)
@ B-freq = 0.000000  C-freq = 0.019034     beta(Z;X,Z) = beta(Z,Z,X)
@ B-freq = 0.006345  C-freq = 0.019034     beta(X;X,Z) = beta(X,Z,X)
@ B-freq = 0.006345  C-freq = 0.019034     beta(Y;X,Z) = beta(Y,Z,X)
@ B-freq = 0.006345  C-freq = 0.019034     beta(Z;X,Z) = beta(Z,Z,X)
@ B-freq = 0.012689  C-freq = 0.019034     beta(X;X,Z) = beta(X,Z,X)
@ B-freq = 0.012689  C-freq = 0.019034     beta(Y;X,Z) = beta(Y,Z,X)
@ B-freq = 0.012689  C-freq = 0.019034     beta(Z;X,Z) = beta(Z,Z,X)
@ B-freq = 0.019034  C-freq = 0.019034     beta(X;X,Z) = beta(X,Z,X)
@ B-freq = 0.019034  C-freq = 0.019034     beta(Y;X,Z) = beta(Y,Z,X)
@ B-freq = 0.019034  C-freq = 0.019034     beta(Z;X,Z) = beta(Z,Z,X)
@ B-freq = 0.025378  C-freq = 0.019034     beta(X;X,Z) = beta(X,Z,X)
@ B-freq = 0.025378  C-freq = 0.019034     beta(Y;X,Z) = beta(Y,Z,X)
@ B-freq = 0.025378  C-freq = 0.019034     beta(Z;X,Z) = beta(Z,Z,X)
@ B-freq = 0.000000  C-freq = 0.019034     beta(X;Y,Z) = beta(X,Z,Y)
@ B-freq = 0.000000  C-freq = 0.019034     beta(Y;Y,Z) = beta(Y,Z,Y)
@ B-freq = 0.000000  C-freq = 0.019034     beta(Z;Y,Z) = beta(Z,Z,Y)
@ B-freq = 0.006345  C-freq = 0.019034     beta(X;Y,Z) = beta(X,Z,Y)
@ B-freq = 0.006345  C-freq = 0.019034     beta(Y;Y,Z) = beta(Y,Z,Y)
@ B-freq = 0.006345  C-freq = 0.019034     beta(Z;Y,Z) = beta(Z,Z,Y)
@ B-freq = 0.012689  C-freq = 0.019034     beta(X;Y,Z) = beta(X,Z,Y)
@ B-freq = 0.012689  C-freq = 0.019034     beta(Y;Y,Z) = beta(Y,Z,Y)
@ B-freq = 0.012689  C-freq = 0.019034     beta(Z;Y,Z) = beta(Z,Z,Y)
@ B-freq = 0.019034  C-freq = 0.019034     beta(X;Y,Z) = beta(X,Z,Y)
@ B-freq = 0.019034  C-freq = 0.019034     beta(Y;Y,Z) = beta(Y,Z,Y)
@ B-freq = 0.019034  C-freq = 0.019034     beta(Z;Y,Z) = beta(Z,Z,Y)
@ B-freq = 0.025378  C-freq = 0.019034     beta(X;Y,Z) = beta(X,Z,Y)
@ B-freq = 0.025378  C-freq = 0.019034     beta(Y;Y,Z) = beta(Y,Z,Y)
@ B-freq = 0.025378  C-freq = 0.019034     beta(Z;Y,Z) = beta(Z,Z,Y)
@ B-freq = 0.000000  C-freq = 0.019034     beta(X;Z,Z) = beta(X,Z,Z)
@ B-freq = 0.000000  C-freq = 0.019034     beta(Y;Z,Z) = beta(Y,Z,Z)
@ B-freq = 0.000000  C-freq = 0.019034     beta(Z;Z,Z) = beta(Z,Z,Z)
@ B-freq = 0.006345  C-freq = 0.019034     beta(X;Z,Z) = beta(X,Z,Z)
@ B-freq = 0.006345  C-freq = 0.019034     beta(Y;Z,Z) = beta(Y,Z,Z)
@ B-freq = 0.006345  C-freq = 0.019034     beta(Z;Z,Z) = beta(Z,Z,Z)
@ B-freq = 0.012689  C-freq = 0.019034     beta(X;Z,Z) = beta(X,Z,Z)
@ B-freq = 0.012689  C-freq = 0.019034     beta(Y;Z,Z) = beta(Y,Z,Z)
@ B-freq = 0.012689  C-freq = 0.019034     beta(Z;Z,Z) = beta(Z,Z,Z)
@ B-freq = 0.019034  C-freq = 0.019034     beta(X;Z,Z) =     23.01896846
@ B-freq = 0.019034  C-freq = 0.019034     beta(Y;Z,Z) =     44.17270367
@ B-freq = 0.019034  C-freq = 0.019034     beta(Z;Z,Z) =      0.00000000
@ B-freq = 0.025378  C-freq = 0.019034     beta(X;Z,Z) =     23.26592881
@ B-freq = 0.025378  C-freq = 0.019034     beta(Y;Z,Z) =     44.69500252
@ B-freq = 0.025378  C-freq = 0.019034     beta(Z;Z,Z) =      0.00000000
@ B-freq = 0.000000  C-freq = 0.025378     beta(X;X,Z) = beta(X,Z,X)
@ B-freq = 0.000000  C-freq = 0.025378     beta(Y;X,Z) = beta(Y,Z,X)
@ B-freq = 0.000000  C-freq = 0.025378     beta(Z;X,Z) = beta(Z,Z,X)
@ B-freq = 0.006345  C-freq = 0.025378     beta(X;X,Z) = beta(X,Z,X)
@ B-freq = 0.006345  C-freq = 0.025378     beta(Y;X,Z) = beta(Y,Z,X)
@ B-freq = 0.006345  C-freq = 0.025378     beta(Z;X,Z) = beta(Z,Z,X)
@ B-freq = 0.012689  C-freq = 0.025378     beta(X;X,Z) = beta(X,Z,X)
@ B-freq = 0.012689  C-freq = 0.025378     beta(Y;X,Z) = beta(Y,Z,X)
@ B-freq = 0.012689  C-freq = 0.025378     beta(Z;X,Z) = beta(Z,Z,X)
@ B-freq = 0.019034  C-freq = 0.025378     beta(X;X,Z) = beta(X,Z,X)
@ B-freq = 0.019034  C-freq = 0.025378     beta(Y;X,Z) = beta(Y,Z,X)
@ B-freq = 0.019034  C-freq = 0.025378     beta(Z;X,Z) = beta(Z,Z,X)
@ B-freq = 0.025378  C-freq = 0.025378     beta(X;X,Z) = beta(X,Z,X)
@ B-freq = 0.025378  C-freq = 0.025378     beta(Y;X,Z) = beta(Y,Z,X)
@ B-freq = 0.025378  C-freq = 0.025378     beta(Z;X,Z) = beta(Z,Z,X)
@ B-freq = 0.000000  C-freq = 0.025378     beta(X;Y,Z) = beta(X,Z,Y)
@ B-freq = 0.000000  C-freq = 0.025378     beta(Y;Y,Z) = beta(Y,Z,Y)
@ B-freq = 0.000000  C-freq = 0.025378     beta(Z;Y,Z) = beta(Z,Z,Y)
@ B-freq = 0.006345  C-freq = 0.025378     beta(X;Y,Z) = beta(X,Z,Y)
@ B-freq = 0.006345  C-freq = 0.025378     beta(Y;Y,Z) = beta(Y,Z,Y)
@ B-freq = 0.006345  C-freq = 0.025378     beta(Z;Y,Z) = beta(Z,Z,Y)
@ B-freq = 0.012689  C-freq = 0.025378     beta(X;Y,Z) = beta(X,Z,Y)
@ B-freq = 0.012689  C-freq = 0.025378     beta(Y;Y,Z) = beta(Y,Z,Y)
@ B-freq = 0.012689  C-freq = 0.025378     beta(Z;Y,Z) = beta(Z,Z,Y)
@ B-freq = 0.019034  C-freq = 0.025378     beta(X;Y,Z) = beta(X,Z,Y)
@ B-freq = 0.019034  C-freq = 0.025378     beta(Y;Y,Z) = beta(Y,Z,Y)
@ B-freq = 0.019034  C-freq = 0.025378     beta(Z;Y,Z) = beta(Z,Z,Y)
@ B-freq = 0.025378  C-freq = 0.025378     beta(X;Y,Z) = beta(X,Z,Y)
@ B-freq = 0.025378  C-freq = 0.025378     beta(Y;Y,Z) = beta(Y,Z,Y)
@ B-freq = 0.025378  C-freq = 0.025378     beta(Z;Y,Z) = beta(Z,Z,Y)
@ B-freq = 0.000000  C-freq = 0.025378     beta(X;Z,Z) = beta(X,Z,Z)
@ B-freq = 0.000000  C-freq = 0.025378     beta(Y;Z,Z) = beta(Y,Z,Z)
@ B-freq = 0.000000  C-freq = 0.025378     beta(Z;Z,Z) = beta(Z,Z,Z)
@ B-freq = 0.006345  C-freq = 0.025378     beta(X;Z,Z) = beta(X,Z,Z)
@ B-freq = 0.006345  C-freq = 0.025378     beta(Y;Z,Z) = beta(Y,Z,Z)
@ B-freq = 0.006345  C-freq = 0.025378     beta(Z;Z,Z) = beta(Z,Z,Z)
@ B-freq = 0.012689  C-freq = 0.025378     beta(X;Z,Z) = beta(X,Z,Z)
@ B-freq = 0.012689  C-freq = 0.025378     beta(Y;Z,Z) = beta(Y,Z,Z)
@ B-freq = 0.012689  C-freq = 0.025378     beta(Z;Z,Z) = beta(Z,Z,Z)
@ B-freq = 0.019034  C-freq = 0.025378     beta(X;Z,Z) = beta(X,Z,Z)
@ B-freq = 0.019034  C-freq = 0.025378     beta(Y;Z,Z) = beta(Y,Z,Z)
@ B-freq = 0.019034  C-freq = 0.025378     beta(Z;Z,Z) = beta(Z,Z,Z)
@ B-freq = 0.025378  C-freq = 0.025378     beta(X;Z,Z) =     23.55311614
@ B-freq = 0.025378  C-freq = 0.025378     beta(Y;Z,Z) =     45.30503906
@ B-freq = 0.025378  C-freq = 0.025378     beta(Z;Z,Z) =      0.00000000

  Total CPU  time used in RESPONSE:  6 minutes 49 seconds
  Total wall time used in RESPONSE:  6 minutes 51 seconds


                   .-------------------------------------------.
                   | End of Dynamic Property Section (RESPONS) |
                   `-------------------------------------------'

  Total CPU  time used in DALTON:  7 minutes 24 seconds
  Total wall time used in DALTON:  7 minutes 26 seconds

 
     Date and time (Linux)  : Sat Jul 27 19:52:17 2024
     Host name              : dn006                                   
