

     ************************************************************************
     *************** Dalton - An Electronic Structure Program ***************
     ************************************************************************

    This is output from DALTON release Dalton2020.0 (2020)
         ( Web site: http://daltonprogram.org )

   ----------------------------------------------------------------------------

    NOTE:
     
    Dalton is an experimental code for the evaluation of molecular
    properties using (MC)SCF, DFT, CI, and CC wave functions.
    The authors accept no responsibility for the performance of
    the code or for the correctness of the results.
     
    The code (in whole or part) is provided under a licence and
    is not to be reproduced for further distribution without
    the written permission of the authors or their representatives.
     
    See the home page "http://daltonprogram.org" for further information.
     
    If results obtained with this code are published,
    the appropriate citations would be both of:
     
       K. Aidas, C. Angeli, K. L. Bak, V. Bakken, R. Bast,
       L. Boman, O. Christiansen, R. Cimiraglia, S. Coriani,
       P. Dahle, E. K. Dalskov, U. Ekstroem,
       T. Enevoldsen, J. J. Eriksen, P. Ettenhuber, B. Fernandez,
       L. Ferrighi, H. Fliegl, L. Frediani, K. Hald, A. Halkier,
       C. Haettig, H. Heiberg, T. Helgaker, A. C. Hennum,
       H. Hettema, E. Hjertenaes, S. Hoest, I.-M. Hoeyvik,
       M. F. Iozzi, B. Jansik, H. J. Aa. Jensen, D. Jonsson,
       P. Joergensen, J. Kauczor, S. Kirpekar,
       T. Kjaergaard, W. Klopper, S. Knecht, R. Kobayashi, H. Koch,
       J. Kongsted, A. Krapp, K. Kristensen, A. Ligabue,
       O. B. Lutnaes, J. I. Melo, K. V. Mikkelsen, R. H. Myhre,
       C. Neiss, C. B. Nielsen, P. Norman, J. Olsen,
       J. M. H. Olsen, A. Osted, M. J. Packer, F. Pawlowski,
       T. B. Pedersen, P. F. Provasi, S. Reine, Z. Rinkevicius,
       T. A. Ruden, K. Ruud, V. Rybkin, P. Salek, C. C. M. Samson,
       A. Sanchez de Meras, T. Saue, S. P. A. Sauer,
       B. Schimmelpfennig, K. Sneskov, A. H. Steindal,
       K. O. Sylvester-Hvid, P. R. Taylor, A. M. Teale,
       E. I. Tellgren, D. P. Tew, A. J. Thorvaldsen, L. Thoegersen,
       O. Vahtras, M. A. Watson, D. J. D. Wilson, M. Ziolkowski
       and H. Agren,
       "The Dalton quantum chemistry program system",
       WIREs Comput. Mol. Sci. 2014, 4:269–284 (doi: 10.1002/wcms.1172)
     
    and
     
       Dalton, a molecular electronic structure program,
       Release Dalton2020.0 (2020), see http://daltonprogram.org
   ----------------------------------------------------------------------------

    Authors in alphabetical order (Major contribution(s) in parenthesis):

  Kestutis Aidas,           Vilnius University,           Lithuania   (QM/MM)
  Celestino Angeli,         University of Ferrara,        Italy       (NEVPT2)
  Keld L. Bak,              UNI-C,                        Denmark     (AOSOPPA, non-adiabatic coupling, magnetic properties)
  Vebjoern Bakken,          University of Oslo,           Norway      (DALTON; geometry optimizer, symmetry detection)
  Radovan Bast,             UiT The Arctic U. of Norway,  Norway      (DALTON installation and execution frameworks)
  Pablo Baudin,             University of Valencia,       Spain       (Cholesky excitation energies)
  Linus Boman,              NTNU,                         Norway      (Cholesky decomposition and subsystems)
  Bruno N. Cabral Tenorio,  Technical Univ. of Denmark,   Denmark     (Lanczos-based CC methods)
  Ove Christiansen,         Aarhus University,            Denmark     (CC module)
  Renzo Cimiraglia,         University of Ferrara,        Italy       (NEVPT2)
  Sonia Coriani,            Technical Univ. of Denmark,   Denmark     (CC and RESPONS modules)
  Janusz Cukras,            University of Warsaw,         Poland      (MChD in RESPONS)
  Paal Dahle,               University of Oslo,           Norway      (Parallelization)
  Erik K. Dalskov,          UNI-C,                        Denmark     (SOPPA)
  Thomas Enevoldsen,        Univ. of Southern Denmark,    Denmark     (SOPPA)
  Janus J. Eriksen,         Aarhus University,            Denmark     (Polarizable embedding, TDA)
  Rasmus Faber,             Technical Univ. of Denmark,   Denmark     (Vib.avg. NMR w. SOPPA, parallel AO-SOPPA, CVS-CC and EOMCC)
  Tobias Fahleson,          KTH Stockholm,                Sweden      (Damped cubic response)
  Berta Fernandez,          U. of Santiago de Compostela, Spain       (Doublet spin, ESR in RESPONS)
  Lara Ferrighi,            Aarhus University,            Denmark     (PCM Cubic response)
  Heike Fliegl,             University of Oslo,           Norway      (CCSD(R12))
  Luca Frediani,            UiT The Arctic U. of Norway,  Norway      (PCM)
  Emmanuel Fromager,        Univ. Strasbourg,             France      (MC-srDFT)
  Bin Gao,                  UiT The Arctic U. of Norway,  Norway      (Gen1Int library)
  Andre S. P. Gomes,        CNRS/Universite de Lille,     France      (Frozen density embedding)
  Christof Haettig,         Ruhr-University Bochum,       Germany     (CC module)
  Kasper Hald,              Aarhus University,            Denmark     (CC module)
  Asger Halkier,            Aarhus University,            Denmark     (CC module)
  Frederik Beyer Hansen,    University of Copenhagen,     Denmark     (Parallel AO-SOPPA)
  Erik D. Hedegaard,        Univ. of Southern Denmark,    Denmark     (Polarizable embedding, QM/MM, and MC-srDFT)
  Hanne Heiberg,            University of Oslo,           Norway      (Geometry analysis, selected one-electron integrals)
  Trygve Helgaker,          University of Oslo,           Norway      (DALTON; ABACUS, ERI, DFT modules, London, and much more)
  Alf Christian Hennum,     University of Oslo,           Norway      (Parity violation)
  Hinne Hettema,            University of Auckland,       New Zealand (Quadratic response in RESPONS; SIRIUS supersymmetry)
  Eirik Hjertenaes,         NTNU,                         Norway      (Cholesky decomposition)
  Pi A. B. Haase,           University of Copenhagen,     Denmark     (Triplet AO-SOPPA)
  Maria Francesca Iozzi,    University of Oslo,           Norway      (RPA)
  Christoph Jacob           TU Braunschweig               Germany     (Frozen density embedding)
  Brano Jansik              Technical Univ. of Ostrava    Czech Rep.  (DFT cubic response)
  Hans Joergen Aa. Jensen,  Univ. of Southern Denmark,    Denmark     (DALTON; SIRIUS, RESPONS, ABACUS, MC-srDFT, and much more)
  Dan Jonsson,              UiT The Arctic U. of Norway,  Norway      (Cubic response in RESPONS module)
  Poul Joergensen,          Aarhus University,            Denmark     (RESPONS, ABACUS, and CC modules)
  Maciej Kaminski,          University of Warsaw,         Poland      (CPPh in RESPONS)
  Joanna Kauczor,           Linkoeping University,        Sweden      (Complex polarization propagator (CPP) module)
  Sheela Kirpekar,          Univ. of Southern Denmark,    Denmark     (Mass-velocity & Darwin integrals)
  Erik Kjellgren,           Univ. of Southern Denmark,    Denmark     (MC-srDFT)
  Wim Klopper,              KIT Karlsruhe,                Germany     (R12 code in CC, SIRIUS, and ABACUS modules)
  Stefan Knecht,            ETH Zurich,                   Switzerland (Parallel CI and MCSCF, MC-srDFT)
  Rika Kobayashi,           Australian National Univ.,    Australia   (DIIS in CC, London in MCSCF)
  Henrik Koch,              NTNU,                         Norway      (CC module, Cholesky decomposition)
  Jacob Kongsted,           Univ. of Southern Denmark,    Denmark     (Polarizable embedding, polarizable density embedding, QM/MM)
  Andrea Ligabue,           University of Modena,         Italy       (CTOCD, AOSOPPA)
  Nanna H. List             Univ. of Southern Denmark,    Denmark     (Polarizable embedding)
  Ola B. Lutnaes,           University of Oslo,           Norway      (DFT Hessian)
  Juan I. Melo,             University of Buenos Aires,   Argentina   (LRESC, Relativistic Effects on NMR Shieldings)
  Kurt V. Mikkelsen,        University of Copenhagen,     Denmark     (MC-SCRF and QM/MM)
  Rolf H. Myhre,            NTNU,                         Norway      (Subsystems and CC3)
  Christian Neiss,          Univ. Erlangen-Nuernberg,     Germany     (CCSD(R12))
  Christian B. Nielsen,     University of Copenhagen,     Denmark     (QM/MM)
  Patrick Norman,           KTH Stockholm,                Sweden      (Cubic response and complex frequency response in RESPONS)
  Jeppe Olsen,              Aarhus University,            Denmark     (SIRIUS CI/density modules)
  Jogvan Magnus H. Olsen,   Aarhus University,            Denmark     (Polarizable embedding and polarizable density embedding)
  Anders Osted,             Copenhagen University,        Denmark     (QM/MM)
  Martin J. Packer,         University of Sheffield,      UK          (SOPPA)
  Filip Pawlowski,          Kazimierz Wielki University,  Poland      (CC3)
  Morten N. Pedersen,       Univ. of Southern Denmark,    Denmark     (Polarizable embedding)
  Thomas B. Pedersen,       University of Oslo,           Norway      (Cholesky decomposition)
  Patricio F. Provasi,      University of Northeastern,   Argentina   (Analysis of coupling constants in localized orbitals)
  Peter Reinholdt,          Univ. of Southern Denmark,    Denmark     (Polarizable embedding and polarizable density embedding)
  Zilvinas Rinkevicius,     KTH Stockholm,                Sweden      (open-shell DFT, ESR)
  Elias Rudberg,            KTH Stockholm,                Sweden      (DFT grid and basis info)
  Torgeir A. Ruden,         University of Oslo,           Norway      (Numerical derivatives in ABACUS)
  Kenneth Ruud,             UiT The Arctic U. of Norway,  Norway      (DALTON; ABACUS magnetic properties and much more)
  Pawel Salek,              KTH Stockholm,                Sweden      (DALTON; DFT code)
  Claire C. M. Samson       University of Karlsruhe       Germany     (Boys localization, r12 integrals in ERI)
  Alfredo Sanchez de Meras, University of Valencia,       Spain       (CC module, Cholesky decomposition)
  Trond Saue,               Paul Sabatier University,     France      (direct Fock matrix construction)
  Stephan P. A. Sauer,      University of Copenhagen,     Denmark     (SOPPA(CCSD), SOPPA prop., AOSOPPA, vibrational g-factors)
  Bernd Schimmelpfennig,    Forschungszentrum Karlsruhe,  Germany     (AMFI module)
  Anna K. Schnack-Petersen, University of Copenhagen,     Denmark     (RPA(D) and HRPA(D) properties in AOSOPPA)
  Kristian Sneskov,         Aarhus University,            Denmark     (Polarizable embedding, QM/MM)
  Arnfinn H. Steindal,      UiT The Arctic U. of Norway,  Norway      (parallel QM/MM, polarizable embedding)
  Casper Steinmann,         Aalborg University,           Denmark     (QFIT, polarizable embedding)
  K. O. Sylvester-Hvid,     University of Copenhagen,     Denmark     (MC-SCRF)
  Peter R. Taylor,          VLSCI/Univ. of Melbourne,     Australia   (Symmetry handling ABACUS, integral transformation)
  Andrew M. Teale,          University of Nottingham,     England     (DFT-AC, DFT-D)
  David P. Tew,             University of Bristol,        England     (CCSD(R12))
  Julien Toulouse,          Sorbonne Univ.,               France      (MC-srDFT)
  Olav Vahtras,             KTH Stockholm,                Sweden      (Triplet response, spin-orbit, ESR, TDDFT, open-shell DFT)
  Lucas Visscher,           Vrije Universiteit Amsterdam, Netherlands (Frozen density embedding)
  David J. Wilson,          La Trobe University,          Australia   (DFT Hessian and DFT magnetizabilities)
  Hans Agren,               KTH Stockholm,                Sweden      (SIRIUS module, RESPONS, MC-SCRF solvation)
 --------------------------------------------------------------------------------

     Date and time (Linux)  : Mon Jul 22 11:22:02 2024
     Host name              : sn-mem                                  

 * Work memory size             :    64000000 =  488.28 megabytes.

 * Directories for basis set searches:
   1) /gpfs/projects/rjh/adrian/beta_paper_database/dalton/hf/H2O/dipole
   2) /gpfs/projects/rjh/adrian/dalton/build/basis


Compilation information
-----------------------

 Who compiled             | ahurtado
 Host                     | sn-mem
 System                   | Linux-3.10.0-1160.81.1.el7.x86_64
 CMake generator          | Unix Makefiles
 Processor                | x86_64
 64-bit integers          | OFF
 MPI                      | ON
 Fortran compiler         | /gpfs/software/intel/oneAPI/2021_4/mpi/2021.4.0/bi
                          | n/mpiifort
 Fortran compiler version | unknown
 C compiler               | /gpfs/software/intel/oneAPI/2021_4/mpi/2021.4.0/bi
                          | n/mpiicc
 C compiler version       | unknown
 C++ compiler             | /gpfs/software/intel/oneAPI/2021_4/mpi/2021.4.0/bi
                          | n/mpiicpc
 C++ compiler version     | unknown
 Static linking           | OFF
 Last Git revision        | 66052b3af5ea7225e31178bf9a8b031913c72190
 Git branch               | (HEAD detached at Dalton2020.0)
 Configuration time       | 2024-05-30 10:57:17.145493

 * MPI parallel run using 16 processes.


   Content of the .dal input file
 ----------------------------------

**DALTON INPUT
.RUN RESPONSE
.DIRECT
**WAVE FUNCTIONS
.HF
**PROPERTIES
**RESPONSE
*QUADRA
.DIPLEN
.FREQUENCIES
5
0.0 0.0198666875 0.039733375 0.0596000625 0.07946675
**END OF DALTON INPUT


   Content of the .mol file
 ----------------------------

BASIS
q-aug-cc-pCVQZ
blah
blah
Atomtype=2 Angstrom Charge=0 Nosymmmetry
Charge=8 Atoms=1
O_a 0.000000000000 0.000000000000 0.117299997610
Charge=1 Atoms=2
H_a 0.000000000000 0.757199998838 -0.469200001024
H_b 0.000000000000 -0.757199998838 -0.469200001024


       *******************************************************************
       *********** Output from DALTON general input processing ***********
       *******************************************************************

 --------------------------------------------------------------------------------
   Overall default print level:    0
   Print level for DALTON.STAT:    1

    Parallel calculation using MPI
    AO-direct calculation (in sections where implemented)
    HERMIT 1- and 2-electron integral sections will be executed
    "Old" integral transformation used (limited to max 255 basis functions)
    Wave function sections will be executed (SIRIUS module)
    Dynamic molecular response properties section will be executed (RESPONSE module)
 --------------------------------------------------------------------------------


   ****************************************************************************
   *************** Output of molecule and basis set information ***************
   ****************************************************************************


    The two title cards from your ".mol" input:
    ------------------------------------------------------------------------
 1: blah                                                                    
 2: blah                                                                    
    ------------------------------------------------------------------------

  Coordinates are entered in Angstrom and converted to atomic units.
          - Conversion factor : 1 bohr = 0.52917721 A

  Atomic type no.    1
  --------------------
  Nuclear charge:   8.00000
  Number of symmetry independent centers:    1
  Number of basis sets to read;    2
  Basis set file used for this atomic type with Z =   8 :
     "/gpfs/projects/rjh/adrian/dalton/build/basis/aug-cc-pCVQZ"

  Atomic type no.    2
  --------------------
  Nuclear charge:   1.00000
  Number of symmetry independent centers:    2
  Number of basis sets to read;    2
  Basis set file used for this atomic type with Z =   1 :
     "/gpfs/projects/rjh/adrian/dalton/build/basis/aug-cc-pCVQZ"


                         SYMGRP: Point group information
                         -------------------------------

@    Point group: C1 


                                 Isotopic Masses
                                 ---------------

                           O_a        15.994915
                           H_a         1.007825
                           H_b         1.007825

                       Total mass:    18.010565 amu
                       Natural abundance:  99.730 %

 Center-of-mass coordinates (a.u.):    0.000000    0.000000    0.097627
 Center-of-mass coordinates (Angs):    0.000000    0.000000    0.051662


  Atoms and basis sets
  --------------------

  Number of atom types :    2
  Total number of atoms:    3

  Basis set used is "q-aug-cc-pCVQZ" from the basis set library.

  label    atoms   charge   prim   cont     basis
  ----------------------------------------------------------------------
  O_          1    8.0000   197   184      [19s13p9d7f5g|12s11p9d7f5g]                        
  H_          2    1.0000    96    94      [10s7p6d5f|8s7p6d5f]                               
  ----------------------------------------------------------------------
  total:      3   10.0000   389   372
  ----------------------------------------------------------------------
  Spherical harmonic basis used.

  Threshold for neglecting AO integrals:  1.00D-12


  Cartesian Coordinates (a.u.)
  ----------------------------

  Total number of coordinates:    9
  O_a     :     1  x   0.0000000000    2  y   0.0000000000    3  z   0.2216648699
  H_a     :     4  x   0.0000000000    5  y   1.4309006196    6  z  -0.8866594998
  H_b     :     7  x   0.0000000000    8  y  -1.4309006196    9  z  -0.8866594998


   Interatomic separations (in Angstrom):
   --------------------------------------

            O_a         H_a         H_b   
            ------      ------      ------
 O_a   :    0.000000
 H_a   :    0.957776    0.000000
 H_b   :    0.957776    1.514400    0.000000


  Max    interatomic separation is    1.5144 Angstrom (    2.8618 Bohr)
  between atoms    3 and    2, "H_b   " and "H_a   ".

  Min HX interatomic separation is    0.9578 Angstrom (    1.8099 Bohr)


  Bond distances (Angstrom):
  --------------------------

                  atom 1     atom 2       distance
                  ------     ------       --------
  bond distance:  H_a        O_a          0.957776
  bond distance:  H_b        O_a          0.957776


  Bond angles (degrees):
  ----------------------

                  atom 1     atom 2     atom 3         angle
                  ------     ------     ------         -----
  bond angle:     H_a        O_a        H_b          104.480




 Principal moments of inertia (u*A**2) and principal axes
 --------------------------------------------------------

   IA       0.615752          0.000000    1.000000    0.000000
   IB       1.155677          0.000000    0.000000    1.000000
   IC       1.771429          1.000000    0.000000    0.000000


 Rotational constants
 --------------------

@    The molecule is planar.

               A                   B                   C

         820751.0438         437301.3971         285294.6081 MHz
           27.377308           14.586804            9.516404 cm-1


@  Nuclear repulsion energy :    9.189533777587 Hartree


                     .---------------------------------------.
                     | Starting in Integral Section (HERMIT) |
                     `---------------------------------------'



 ***************************************************************************************
 ****************** Output from **INTEGRALS input processing (HERMIT) ******************
 ***************************************************************************************


 - Using defaults, no **INTEGRALS input found

 Default print level:        1

 Calculation of one-electron Hamiltonian integrals.

 Center of mass  (bohr):      0.000000000000      0.000000000000      0.097626894688
 Operator center (bohr):      0.000000000000      0.000000000000      0.000000000000
 Gauge origin    (bohr):      0.000000000000      0.000000000000      0.000000000000
 Dipole origin   (bohr):      0.000000000000      0.000000000000      0.000000000000


     ************************************************************************
     ************************** Output from HERINT **************************
     ************************************************************************



                      Nuclear contribution to dipole moments
                      --------------------------------------

                 au               Debye          C m (/(10**-30)

      x      0.00000000         0.00000000         0.00000000
      y      0.00000000         0.00000000         0.00000000
      z     -0.00000004        -0.00000010        -0.00000034


  Time used in GABGEN     is       2.16 seconds
  Total CPU  time used in HERMIT:   2.42 seconds
  Total wall time used in HERMIT:   2.44 seconds


                        .----------------------------------.
                        | End of Integral Section (HERMIT) |
                        `----------------------------------'



                   .--------------------------------------------.
                   | Starting in Wave Function Section (SIRIUS) |
                   `--------------------------------------------'



@ Primary orbitals are deleted during canonical orthonormalization
@   because of detected numerical linear dependence or too large coefficients.
@ Eigenvalue threshold for num. lin. dep. =  1.00D-06

@   7 MO components are deleted in symmetry    1
 Overlap eigenvalues of the deleted orbitals:
  6.25D-07  5.93D-07  3.77D-07  1.23D-07  9.96D-08
  2.50D-08  2.23D-08

 Max MO coeff. of last deleted MO & limit:  8.75D+02  1.00D+03

WARNING: Orbitals have been deleted because of numerical
   linear dependence although not requested in input.

 *** Output from Huckel module :

     Using EWMO model:          T
     Using EHT  model:          F
     Number of Huckel orbitals each symmetry:    7

 EWMO - Energy Weighted Maximum Overlap - is a Huckel type method,
        which normally is better than Extended Huckel Theory.
 Reference: Linderberg and Ohrn, Propagators in Quantum Chemistry (Wiley, 1973)

 Huckel EWMO eigenvalues for symmetry :  1
          -20.684959      -1.611341      -0.778168      -0.688462      -0.616200
           -0.232449      -0.168322

 **********************************************************************
 *SIRIUS* a direct, restricted step, second order MCSCF program       *
 **********************************************************************

 
     Date and time (Linux)  : Mon Jul 22 11:22:05 2024
     Host name              : sn-mem                                  

 Title lines from ".mol" input file:
     blah                                                                    
     blah                                                                    

 Print level on unit LUPRI =   2 is   0
 Print level on unit LUW4  =   2 is   5

@    Restricted, closed shell Hartree-Fock calculation.

@    Time-dependent Hartree-Fock calculation (random phase approximation).
 Fock matrices are calculated directly and in parallel without use of integrals on disk.

 Initial molecular orbitals are obtained according to
 ".MOSTART EWMO  " input option

     Wave function specification
     ============================
@    Wave function type        --- HF ---
@    Number of closed shell electrons          10
@    Number of electrons in active shells       0
@    Total charge of the molecule               0

@    Spin multiplicity and 2 M_S                1         0
@    Total number of symmetries                 1 (point group: C1 )
@    Reference state symmetry                   1 (irrep name : A  )

     Orbital specifications
     ======================
@    Abelian symmetry species          All |    1
@                                          |  A  
                                       --- |  ---
@    Occupied SCF orbitals               5 |    5
@    Secondary orbitals                360 |  360
@    Total number of orbitals          365 |  365
@    Number of basis functions         372 |  372

     Optimization information
     ========================
@    Number of configurations                 1
@    Number of orbital rotations           1800
     ------------------------------------------
@    Total number of variables             1801

     Maximum number of Fock   iterations      0
     Maximum number of DIIS   iterations     60
     Maximum number of QC-SCF iterations     60
     Threshold for SCF convergence     1.00D-05

    INFORMATION: Switched to "new" integral transformation (from 1988 ;-) )
    because more than 255 basis functions.


 ***********************************************
 ***** DIIS acceleration of SCF iterations *****
 ***********************************************

 C1-DIIS algorithm; max error vectors =    8

 Iter      Total energy        Error norm    Delta(E)  DIIS dim.
 -----------------------------------------------------------------------------
   1  Screening settings (-IFTHRS, JTDIIS, DIFDEN, times)   -9    1    T  7.31D+00  7.33D+00
@  1    -75.8766321911        3.18603D+00   -7.59D+01    1
      Virial theorem: -V/T =      1.997060
@    MULPOP   O_a    -1.82; H_a     0.91; H_b     0.91; 
   1  Level shift: doubly occupied orbital energies shifted by -2.00D-01
 -----------------------------------------------------------------------------
   2  Screening settings (-IFTHRS, JTDIIS, DIFDEN, times)   -9    2    T  7.63D+00  7.64D+00
@  2    -76.0549044665        4.23394D-01   -1.78D-01    2
      Virial theorem: -V/T =      2.003316
@    MULPOP   O_a    -0.85; H_a     0.42; H_b     0.42; 
   2  Level shift: doubly occupied orbital energies shifted by -5.00D-02
 -----------------------------------------------------------------------------
   3  Screening settings (-IFTHRS, JTDIIS, DIFDEN, times)   -9    3    T  7.70D+00  7.72D+00
@  3    -76.0647542486        1.10881D-01   -9.85D-03    3
      Virial theorem: -V/T =      1.999979
@    MULPOP   O_a    -0.68; H_a     0.34; H_b     0.34; 
   3  Level shift: doubly occupied orbital energies shifted by -2.50D-02
 -----------------------------------------------------------------------------
   4  Screening settings (-IFTHRS, JTDIIS, DIFDEN, times)  -13    4    F  7.60D+00  7.61D+00
@  4    -76.0658876380        5.40693D-02   -1.13D-03    4
      Virial theorem: -V/T =      2.001786
@    MULPOP   O_a    -0.65; H_a     0.33; H_b     0.33; 
   4  Level shift: doubly occupied orbital energies shifted by -1.25D-02
 -----------------------------------------------------------------------------
   5  Screening settings (-IFTHRS, JTDIIS, DIFDEN, times)  -13    5    T  7.60D+00  7.61D+00
@  5    -76.0660528491        1.22429D-02   -1.65D-04    5
      Virial theorem: -V/T =      2.000804
@    MULPOP   O_a    -0.67; H_a     0.33; H_b     0.33; 
 -----------------------------------------------------------------------------
   6  Screening settings (-IFTHRS, JTDIIS, DIFDEN, times)  -13    6    T  7.66D+00  7.67D+00
@  6    -76.0660764724        3.00050D-03   -2.36D-05    6
      Virial theorem: -V/T =      2.000937
@    MULPOP   O_a    -0.67; H_a     0.33; H_b     0.33; 
 -----------------------------------------------------------------------------
   7  Screening settings (-IFTHRS, JTDIIS, DIFDEN, times)  -13    7    T  7.60D+00  7.61D+00
@  7    -76.0660781803        5.77205D-04   -1.71D-06    7
      Virial theorem: -V/T =      2.000947
@    MULPOP   O_a    -0.67; H_a     0.33; H_b     0.33; 
 -----------------------------------------------------------------------------
   8  Screening settings (-IFTHRS, JTDIIS, DIFDEN, times)  -13    8    T  7.48D+00  7.50D+00
@  8    -76.0660782315        8.75489D-05   -5.12D-08    8
      Virial theorem: -V/T =      2.000953
@    MULPOP   O_a    -0.67; H_a     0.33; H_b     0.33; 
 -----------------------------------------------------------------------------
   9  Screening settings (-IFTHRS, JTDIIS, DIFDEN, times)  -13    9    T  7.65D+00  7.67D+00
@  9    -76.0660782325        1.59192D-05   -1.04D-09    8
      Virial theorem: -V/T =      2.000953
@    MULPOP   O_a    -0.67; H_a     0.33; H_b     0.33; 
 -----------------------------------------------------------------------------
  10  Screening settings (-IFTHRS, JTDIIS, DIFDEN, times)  -13   10    T  7.59D+00  7.60D+00
@ 10    -76.0660782326        3.24415D-06   -3.39D-11    8

@ *** DIIS converged in  10 iterations !
@     Converged SCF energy, gradient:    -76.066078232577    3.24D-06
    - total time used in SIRFCK :              0.00 seconds


 *** SCF orbital energy analysis ***

 Only the 20 lowest virtual orbital energies printed in each symmetry.

 Number of electrons :   10
 Orbital occupations :    5

 Sym       Hartree-Fock orbital energies

1 A     -20.56476394    -1.35257095    -0.71743417    -0.58495868    -0.51045522
          0.00039859     0.00090523     0.00210935     0.00254139     0.00292248
          0.00343888     0.00559921     0.00563914     0.00565597     0.00676240
          0.00739349     0.00827242     0.00872339     0.01160420     0.01164463
          0.01479556     0.01489878     0.01492571     0.01496146     0.01501379

    E(LUMO) :     0.00039859 au (symmetry 1)
  - E(HOMO) :    -0.51045522 au (symmetry 1)
  ------------------------------------------
    gap     :     0.51085381 au

 --- Writing SIRIFC interface file

 CPU and wall time for SCF :      76.722      76.889


                       .-----------------------------------.
                       | --- Final results from SIRIUS --- |
                       `-----------------------------------'


@    Spin multiplicity:           1
@    Spatial symmetry:            1 ( irrep  A   in C1  )
@    Total charge of molecule:    0

@    Final HF energy:             -76.066078232577                 
@    Nuclear repulsion:             9.189533777587
@    Electronic energy:           -85.255612010164

@    Final gradient norm:           0.000003244152

 
     Date and time (Linux)  : Mon Jul 22 11:23:22 2024
     Host name              : sn-mem                                  

File label for MO orbitals:  22Jul24   FOCKDIIS

 (Only coefficients > 0.0100 are printed.)

 Molecular orbitals for symmetry species 1  (A  )
 ------------------------------------------------

    Orbital         1        2        3        4        5        6        7
   1 O_a :1s    -1.0013   0.0015   0.0000   0.0008   0.0000   0.0002  -0.0000
   2 O_a :1s    -0.0070  -0.8934   0.0000  -0.2899   0.0000   0.0085  -0.0000
   4 O_a :1s     0.0085   0.0428  -0.0000  -0.0527  -0.0000   0.0025   0.0000
   5 O_a :1s     0.0029   0.0164  -0.0000  -0.2534  -0.0000   0.0075  -0.0000
   9 O_a :1s    -0.0020  -0.0551  -0.0000  -0.0741  -0.0000   0.0484  -0.0000
  10 O_a :1s     0.0000   0.0065  -0.0000   0.0059  -0.0000   0.0495   0.0000
  11 O_a :1s     0.0000   0.0003   0.0000   0.0003   0.0000  -0.3026  -0.0000
  12 O_a :1s    -0.0000   0.0016  -0.0000  -0.0008   0.0000  -1.0078  -0.0000
  13 O_a :2px    0.0000   0.0000   0.0000   0.0000   0.9161  -0.0000  -0.0000
  14 O_a :2py   -0.0000   0.0000  -0.7244   0.0000   0.0000   0.0000   0.0008
  15 O_a :2pz    0.0054   0.1103  -0.0000  -0.8037   0.0000  -0.0070  -0.0000
  20 O_a :2py   -0.0000   0.0000   0.0166   0.0000   0.0000  -0.0000  -0.0005
  21 O_a :2pz   -0.0038   0.0056   0.0000   0.0144  -0.0000  -0.0002  -0.0000
  22 O_a :2px    0.0000   0.0000   0.0000   0.0000   0.0402  -0.0000  -0.0000
  23 O_a :2py   -0.0000   0.0000   0.0284  -0.0000   0.0000  -0.0000   0.0071
  24 O_a :2pz    0.0002  -0.0002   0.0000   0.0298   0.0000   0.0084  -0.0000
  34 O_a :2px    0.0000   0.0000   0.0000   0.0000   0.0751  -0.0000  -0.0000
  35 O_a :2py    0.0000   0.0000   0.0576   0.0000  -0.0000   0.0000   0.1108
  36 O_a :2pz    0.0006   0.0061   0.0000  -0.0357   0.0000   0.0318  -0.0000
  37 O_a :2px    0.0000   0.0000   0.0000   0.0000   0.0406  -0.0000  -0.0000
  38 O_a :2py   -0.0000  -0.0000   0.0097   0.0000  -0.0000  -0.0000   0.3000
  39 O_a :2pz    0.0001   0.0044   0.0000  -0.0277   0.0000   0.1246   0.0000
  40 O_a :2px    0.0000   0.0000   0.0000   0.0000   0.0128  -0.0000  -0.0000
  41 O_a :2py   -0.0000  -0.0000  -0.0006   0.0000   0.0000  -0.0000   0.8313
  42 O_a :2pz    0.0001   0.0011  -0.0000  -0.0090   0.0000   0.3567  -0.0000
  44 O_a :2py    0.0000   0.0000  -0.0000   0.0000   0.0000   0.0000   1.5630
  45 O_a :2pz    0.0000   0.0001  -0.0000  -0.0016   0.0000   0.5927  -0.0000
  62 O_a :3d1-   0.0000  -0.0000   0.0187  -0.0000  -0.0000   0.0000   0.0000
  67 O_a :3d1-   0.0000  -0.0000   0.0290  -0.0000  -0.0000  -0.0000   0.0004
  68 O_a :3d0   -0.0001  -0.0038   0.0000   0.0202  -0.0000   0.0002   0.0000
  69 O_a :3d1+  -0.0000  -0.0000  -0.0000  -0.0000  -0.0140   0.0000   0.0000
  74 O_a :3d1+  -0.0000  -0.0000  -0.0000  -0.0000  -0.0132   0.0000   0.0000
  77 O_a :3d1-  -0.0000  -0.0000  -0.0603  -0.0000   0.0000   0.0000   0.0076
  79 O_a :3d1+   0.0000   0.0000   0.0000   0.0000  -0.0206  -0.0000  -0.0000
  80 O_a :3d2+   0.0000   0.0021   0.0000   0.0094   0.0000   0.0155   0.0000
  83 O_a :3d0   -0.0003  -0.0113   0.0000   0.0094  -0.0000   0.0828  -0.0000
  85 O_a :3d2+   0.0000  -0.0118  -0.0000   0.0132  -0.0000   0.0861  -0.0000
  87 O_a :3d1-   0.0000   0.0000  -0.0025   0.0000   0.0000   0.0000   0.0209
  88 O_a :3d0   -0.0001  -0.0026   0.0000   0.0013  -0.0000   0.1151  -0.0000
  90 O_a :3d2+  -0.0000  -0.0030  -0.0000   0.0030  -0.0000   0.1030  -0.0000
 128 O_a :4f1-   0.0000  -0.0000   0.0248   0.0000  -0.0000  -0.0000  -0.0027
 129 O_a :4f0   -0.0004   0.0040  -0.0000  -0.0110   0.0000   0.0038   0.0000
 131 O_a :4f2+  -0.0003   0.0036  -0.0000  -0.0132  -0.0000   0.0026   0.0000
 133 O_a :4f3-  -0.0000  -0.0000  -0.0077  -0.0000   0.0000  -0.0000   0.0220
 135 O_a :4f1-  -0.0000  -0.0000  -0.0000  -0.0000  -0.0000  -0.0000   0.0118
 136 O_a :4f0    0.0001   0.0028   0.0000   0.0001   0.0000  -0.0114   0.0000
 139 O_a :4f3+   0.0000   0.0000   0.0000   0.0000  -0.0126  -0.0000  -0.0000
 185 H_a :1s    -0.0004  -0.3933  -0.6186   0.3697  -0.0000  -0.0008   0.0002
 186 H_a :1s    -0.0006   0.0249   0.0264  -0.0134  -0.0000   0.0012  -0.0001
 187 H_a :1s    -0.0003   0.1532   0.1285  -0.0010   0.0000   0.0093  -0.0011
 188 H_a :1s     0.0010   0.1381   0.2897  -0.0597   0.0000   0.0052   0.0495
 189 H_a :1s    -0.0000  -0.0023  -0.0062  -0.0027  -0.0000   0.0516  -0.0111
 190 H_a :1s    -0.0000   0.0001  -0.0034   0.0005  -0.0000   0.3349   0.0914
 191 H_a :1s    -0.0000  -0.0004  -0.0015   0.0004  -0.0000   0.4764   0.1928
 192 H_a :1s    -0.0000   0.0000   0.0001   0.0000  -0.0000  -0.6166 -21.7686
 196 H_a :2px   -0.0000  -0.0000  -0.0000  -0.0000   0.0129   0.0000   0.0000
 197 H_a :2py    0.0004   0.0087   0.0077  -0.0101   0.0000  -0.0006  -0.0001
 198 H_a :2pz   -0.0004  -0.0061  -0.0109  -0.0012  -0.0000   0.0005  -0.0002
 199 H_a :2px   -0.0000  -0.0000  -0.0000  -0.0000   0.0224   0.0000   0.0000
 200 H_a :2py    0.0007   0.0075   0.0127  -0.0327  -0.0000   0.0005  -0.0043
 201 H_a :2pz   -0.0010  -0.0048  -0.0214   0.0107  -0.0000   0.0000  -0.0027
 203 H_a :2py    0.0006  -0.0044  -0.0874   0.0023   0.0000   0.0187  -0.0565
 205 H_a :2px   -0.0000  -0.0000  -0.0000  -0.0000  -0.0336   0.0000   0.0000
 206 H_a :2py   -0.0001  -0.0141  -0.0120   0.0017  -0.0000   0.1375  -0.0900
 207 H_a :2pz    0.0000  -0.0044  -0.0060   0.0215  -0.0000  -0.0256   0.0115
 209 H_a :2py    0.0000  -0.0056   0.0011  -0.0010  -0.0000   0.4257  -0.3261
 210 H_a :2pz   -0.0001  -0.0009   0.0029   0.0064  -0.0000  -0.0991  -0.0951
 212 H_a :2py    0.0000   0.0013   0.0002  -0.0022   0.0000   0.0761  -0.7801
 213 H_a :2pz   -0.0000  -0.0001  -0.0011   0.0015  -0.0000  -0.2410  -0.2038
 230 H_a :3d1-  -0.0004   0.0084   0.0256  -0.0208  -0.0000   0.0154  -0.0174
 231 H_a :3d0   -0.0002   0.0018  -0.0171  -0.0021   0.0000   0.0009  -0.0126
 233 H_a :3d2+   0.0001  -0.0017  -0.0199  -0.0060   0.0000   0.0055  -0.0137
 234 H_a :3d2-   0.0000   0.0000   0.0000   0.0000  -0.0242  -0.0000  -0.0000
 235 H_a :3d1-   0.0004   0.0024   0.0039   0.0074  -0.0000   0.0236  -0.0199
 236 H_a :3d0    0.0001   0.0038   0.0027  -0.0017   0.0000  -0.0411  -0.0420
 238 H_a :3d2+  -0.0000   0.0037   0.0099  -0.0062   0.0000  -0.0130  -0.0720
 240 H_a :3d1-   0.0001   0.0002   0.0006   0.0019  -0.0000   0.0385  -0.0305
 241 H_a :3d0    0.0000   0.0005   0.0011  -0.0001   0.0000  -0.0461  -0.0741
 243 H_a :3d2+   0.0000   0.0006  -0.0008  -0.0010   0.0000   0.0040  -0.0793
 279 H_b :1s    -0.0004  -0.3933   0.6186   0.3697  -0.0000  -0.0008  -0.0002
 280 H_b :1s    -0.0006   0.0249  -0.0264  -0.0134   0.0000   0.0012   0.0001
 281 H_b :1s    -0.0003   0.1532  -0.1285  -0.0010   0.0000   0.0093   0.0011
 282 H_b :1s     0.0010   0.1381  -0.2897  -0.0597   0.0000   0.0052  -0.0495
 283 H_b :1s    -0.0000  -0.0023   0.0062  -0.0027  -0.0000   0.0516   0.0111
 284 H_b :1s    -0.0000   0.0001   0.0034   0.0005  -0.0000   0.3349  -0.0914
 285 H_b :1s    -0.0000  -0.0004   0.0015   0.0004  -0.0000   0.4764  -0.1928
 286 H_b :1s    -0.0000   0.0000  -0.0001   0.0000   0.0000  -0.6166  21.7686
 290 H_b :2px   -0.0000  -0.0000  -0.0000  -0.0000   0.0129   0.0000   0.0000
 291 H_b :2py   -0.0004  -0.0087   0.0077   0.0101  -0.0000   0.0006  -0.0001
 292 H_b :2pz   -0.0004  -0.0061   0.0109  -0.0012  -0.0000   0.0005   0.0002
 293 H_b :2px   -0.0000  -0.0000  -0.0000  -0.0000   0.0224   0.0000   0.0000
 294 H_b :2py   -0.0007  -0.0075   0.0127   0.0327   0.0000  -0.0005  -0.0043
 295 H_b :2pz   -0.0010  -0.0048   0.0214   0.0107  -0.0000   0.0000   0.0027
 297 H_b :2py   -0.0006   0.0044  -0.0874  -0.0023   0.0000  -0.0187  -0.0565
 299 H_b :2px   -0.0000  -0.0000  -0.0000  -0.0000  -0.0336   0.0000   0.0000
 300 H_b :2py    0.0001   0.0141  -0.0120  -0.0017   0.0000  -0.1375  -0.0900
 301 H_b :2pz    0.0000  -0.0044   0.0060   0.0215  -0.0000  -0.0256  -0.0115
 303 H_b :2py   -0.0000   0.0056   0.0011   0.0010   0.0000  -0.4257  -0.3261
 304 H_b :2pz   -0.0001  -0.0009  -0.0029   0.0064  -0.0000  -0.0991   0.0951
 306 H_b :2py   -0.0000  -0.0013   0.0002   0.0022  -0.0000  -0.0761  -0.7801
 307 H_b :2pz   -0.0000  -0.0001   0.0011   0.0015  -0.0000  -0.2410   0.2038
 324 H_b :3d1-   0.0004  -0.0084   0.0256   0.0208   0.0000  -0.0154  -0.0174
 325 H_b :3d0   -0.0002   0.0018   0.0171  -0.0021  -0.0000   0.0009   0.0126
 327 H_b :3d2+   0.0001  -0.0017   0.0199  -0.0060  -0.0000   0.0055   0.0137
 328 H_b :3d2-  -0.0000  -0.0000  -0.0000  -0.0000   0.0242   0.0000   0.0000
 329 H_b :3d1-  -0.0004  -0.0024   0.0039  -0.0074   0.0000  -0.0236  -0.0199
 330 H_b :3d0    0.0001   0.0038  -0.0027  -0.0017   0.0000  -0.0411   0.0420
 332 H_b :3d2+  -0.0000   0.0037  -0.0099  -0.0062   0.0000  -0.0130   0.0720
 334 H_b :3d1-  -0.0001  -0.0002   0.0006  -0.0019   0.0000  -0.0385  -0.0305
 335 H_b :3d0    0.0000   0.0005  -0.0011  -0.0001   0.0000  -0.0461   0.0741
 337 H_b :3d2+   0.0000   0.0006   0.0008  -0.0010   0.0000   0.0040   0.0793

    Orbital         8        9       10       11       12       13       14
   2 O_a :1s    -0.0132  -0.0000   0.0102  -0.0000   0.0000  -0.0012  -0.0000
   5 O_a :1s     0.0315   0.0000   0.0029  -0.0000   0.0000   0.1342   0.0000
   9 O_a :1s     0.1466   0.0000  -0.0876  -0.0000   0.0000   0.5379  -0.0000
  10 O_a :1s     0.1333   0.0000  -0.1300   0.0000  -0.0000   0.1549  -0.0000
  11 O_a :1s    -1.1650  -0.0000   0.5921  -0.0000   0.0000  -0.6342   0.0000
  12 O_a :1s    -4.3902  -0.0000   2.0008  -0.0000   0.0000  -5.5893   0.0000
  15 O_a :2pz    0.0120  -0.0000  -0.0082   0.0000  -0.0000   0.0003  -0.0000
  22 O_a :2px    0.0000   0.0328  -0.0000  -0.0000   0.0000  -0.0000   0.0000
  23 O_a :2py    0.0000  -0.0000   0.0000  -0.0171  -0.0222   0.0000   0.0000
  24 O_a :2pz   -0.0128  -0.0000  -0.0495  -0.0000   0.0000  -0.0276   0.0000
  34 O_a :2px    0.0000   0.1468  -0.0000  -0.0000   0.0000  -0.0000   0.0000
  35 O_a :2py    0.0000   0.0000   0.0000  -0.3287  -0.1236  -0.0000  -0.0000
  36 O_a :2pz   -0.0533  -0.0000  -0.1847  -0.0000  -0.0000  -0.0504  -0.0000
  37 O_a :2px    0.0000   0.6698  -0.0000  -0.0000   0.0000  -0.0000   0.0000
  38 O_a :2py   -0.0000   0.0000  -0.0000  -1.0572   0.3983  -0.0000   0.0000
  39 O_a :2pz   -0.2137  -0.0000  -0.7115   0.0000  -0.0000   0.1446  -0.0000
  40 O_a :2px    0.0000   2.1988  -0.0000  -0.0000   0.0000  -0.0000   0.0000
  41 O_a :2py   -0.0000  -0.0000   0.0000  -2.7389  -0.8363   0.0000   0.0000
  42 O_a :2pz   -0.7931  -0.0000  -2.1916  -0.0000  -0.0000   0.8189  -0.0000
  43 O_a :2px    0.0000   4.1655  -0.0000  -0.0000   0.0000  -0.0000  -0.0000
  44 O_a :2py    0.0000  -0.0000   0.0000  -5.7270  -1.7934   0.0000  -0.0000
  45 O_a :2pz   -1.9279  -0.0000  -3.8187  -0.0000   0.0000   0.8027  -0.0000
  71 O_a :3d2-  -0.0000   0.0000   0.0000   0.0000  -0.0000  -0.0000   0.0241
  72 O_a :3d1-  -0.0000   0.0000  -0.0000   0.0003  -0.0428  -0.0000  -0.0000
  75 O_a :3d2+   0.0111   0.0000  -0.0160   0.0000  -0.0000  -0.0082  -0.0000
  76 O_a :3d2-   0.0000   0.0000  -0.0000  -0.0000   0.0000  -0.0000   0.1592
  77 O_a :3d1-  -0.0000  -0.0000   0.0000   0.0060  -0.1586   0.0000  -0.0000
  78 O_a :3d0   -0.0598   0.0000  -0.0511  -0.0000   0.0000   0.1046  -0.0000
  79 O_a :3d1+   0.0000   0.1069  -0.0000  -0.0000   0.0000  -0.0000   0.0000
  80 O_a :3d2+   0.0329  -0.0000  -0.0435   0.0000  -0.0000   0.0306  -0.0000
  81 O_a :3d2-  -0.0000   0.0000   0.0000   0.0000  -0.0000  -0.0000   2.9183
  82 O_a :3d1-   0.0000  -0.0000   0.0000   0.8352  -4.1730   0.0000  -0.0000
  83 O_a :3d0    0.0804   0.0000  -0.2316  -0.0000   0.0000   0.7940  -0.0000
  84 O_a :3d1+  -0.0000   0.2352   0.0000   0.0000  -0.0000   0.0000  -0.0000
  85 O_a :3d2+   0.4146   0.0000  -0.1083  -0.0000   0.0000   1.2613  -0.0000
  86 O_a :3d2-  -0.0000   0.0000   0.0000   0.0000  -0.0000  -0.0000   2.0160
  87 O_a :3d1-   0.0000  -0.0000   0.0000   0.4511  -2.3646   0.0000  -0.0000
  88 O_a :3d0    0.1911   0.0000  -0.2877  -0.0000   0.0000   0.9995  -0.0000
  89 O_a :3d1+  -0.0000   0.2835   0.0000   0.0000  -0.0000   0.0000  -0.0000
  90 O_a :3d2+   0.6452   0.0000  -0.0686  -0.0000   0.0000   1.6861  -0.0000
 114 O_a :4f1-  -0.0000  -0.0000   0.0000   0.0035   0.0109  -0.0000   0.0000
 119 O_a :4f3-  -0.0000  -0.0000   0.0000   0.0161  -0.0099   0.0000   0.0000
 120 O_a :4f2-   0.0000  -0.0000  -0.0000  -0.0000   0.0000   0.0000  -0.0220
 121 O_a :4f1-  -0.0000  -0.0000   0.0000   0.0118   0.0191   0.0000   0.0000
 126 O_a :4f3-  -0.0000   0.0000   0.0000   0.0147  -0.0870   0.0000   0.0000
 127 O_a :4f2-   0.0000  -0.0000  -0.0000  -0.0000   0.0000   0.0000  -0.1125
 128 O_a :4f1-  -0.0000   0.0000  -0.0000   0.0124  -0.0011  -0.0000   0.0000
 129 O_a :4f0    0.0384  -0.0000   0.0078   0.0000  -0.0000  -0.0717   0.0000
 130 O_a :4f1+  -0.0000  -0.0380   0.0000   0.0000  -0.0000   0.0000  -0.0000
 131 O_a :4f2+   0.0151   0.0000  -0.0068   0.0000  -0.0000  -0.0563   0.0000
 133 O_a :4f3-  -0.0000  -0.0000  -0.0000  -0.1290   0.2709   0.0000   0.0000
 134 O_a :4f2-   0.0000  -0.0000  -0.0000  -0.0000   0.0000   0.0000  -0.3943
 135 O_a :4f1-  -0.0000   0.0000  -0.0000  -0.1722   0.6745  -0.0000   0.0000
 136 O_a :4f0   -0.0414  -0.0000   0.0082   0.0000  -0.0000  -0.1197   0.0000
 137 O_a :4f1+   0.0000  -0.0147  -0.0000  -0.0000   0.0000  -0.0000   0.0000
 138 O_a :4f2+  -0.0923   0.0000  -0.0307  -0.0000   0.0000  -0.1395   0.0000
 139 O_a :4f3+   0.0000   0.1065  -0.0000  -0.0000   0.0000  -0.0000   0.0000
 176 O_a :5g4-  -0.0000  -0.0000   0.0000   0.0000  -0.0000   0.0000   0.0168
 177 O_a :5g3-   0.0000  -0.0000  -0.0000   0.0022   0.0101   0.0000   0.0000
 178 O_a :5g2-  -0.0000   0.0000   0.0000   0.0000  -0.0000  -0.0000   0.0237
 180 O_a :5g0   -0.0081  -0.0000   0.0018  -0.0000   0.0000   0.0168  -0.0000
 182 O_a :5g2+  -0.0023  -0.0000   0.0055  -0.0000   0.0000   0.0145  -0.0000
 187 H_a :1s     0.0024  -0.0000  -0.0377   0.0097  -0.0332  -0.0508  -0.0000
 188 H_a :1s    -0.0072  -0.0000  -0.0340  -0.1300  -0.1443  -0.2347  -0.0000
 189 H_a :1s     0.1431   0.0000  -0.1476   0.0561  -0.0397   0.0285  -0.0000
 190 H_a :1s     1.1882   0.0000  -0.8245  -0.1160   0.0168   0.4945  -0.0000
 191 H_a :1s     2.1880   0.0000  -1.2183  -0.5030   0.7316   1.8584  -0.0000
 192 H_a :1s    -0.6446   0.0000   0.3764  17.7610   2.6359  -0.0051   0.0000
 200 H_a :2py    0.0084   0.0000  -0.0014   0.0104   0.0153   0.0164  -0.0000
 201 H_a :2pz   -0.0024   0.0000   0.0017   0.0043   0.0222  -0.0202   0.0000
 202 H_a :2px   -0.0000  -0.0257   0.0000   0.0000  -0.0000   0.0000  -0.1008
 203 H_a :2py    0.0528  -0.0000  -0.0541   0.1789   0.0125   0.0396  -0.0000
 204 H_a :2pz   -0.0074   0.0000   0.0344  -0.0139   0.1760  -0.0630   0.0000
 205 H_a :2px   -0.0000  -0.1195   0.0000   0.0000  -0.0000   0.0000  -1.9813
 206 H_a :2py    0.4950   0.0000  -0.2807   0.3860  -0.5331   0.4603  -0.0000
 207 H_a :2pz    0.0245   0.0000   0.1813  -0.7053   3.3364   0.1309   0.0000
 208 H_a :2px   -0.0000  -0.8015   0.0000   0.0000  -0.0000   0.0000   0.3342
 209 H_a :2py    1.5698   0.0000  -0.9441   1.0502   0.1625   0.3197  -0.0000
 210 H_a :2pz    0.3312   0.0000   0.7807   0.0912   0.3951  -0.1673   0.0000
 211 H_a :2px   -0.0000  -2.0793   0.0000   0.0000  -0.0000   0.0000  13.7266
 212 H_a :2py   -0.8961  -0.0000  -1.1702   2.6921   1.0036 -11.5637  -0.0000
 213 H_a :2pz    0.9508   0.0000   1.9706   3.8248 -12.9662  -0.4515   0.0000
 225 H_a :3d1-   0.0037  -0.0000  -0.0058   0.0106  -0.0072   0.0049   0.0000
 229 H_a :3d2-   0.0000   0.0015  -0.0000  -0.0000   0.0000  -0.0000  -0.0278
 230 H_a :3d1-   0.0345   0.0000  -0.0513   0.0680  -0.0500  -0.0534   0.0000
 231 H_a :3d0    0.0616  -0.0000   0.0376   0.0290   0.0420  -0.0788   0.0000
 232 H_a :3d1+  -0.0000  -0.0774   0.0000   0.0000  -0.0000   0.0000   0.1000
 233 H_a :3d2+   0.0205  -0.0000  -0.0074   0.0167   0.1278  -0.0391  -0.0000
 234 H_a :3d2-   0.0000   0.2974  -0.0000  -0.0000   0.0000  -0.0000  -1.3456
 235 H_a :3d1-  -0.1311   0.0000  -0.1949  -0.2719   1.7280   0.2208   0.0000
 236 H_a :3d0    0.0386  -0.0000   0.1537   0.1008   0.2152  -0.4485   0.0000
 237 H_a :3d1+   0.0000  -0.1913  -0.0000  -0.0000   0.0000  -0.0000  -0.1086
 238 H_a :3d2+  -0.1379  -0.0000  -0.0214   0.3558  -0.5305  -0.7109   0.0000
 239 H_a :3d2-   0.0000   0.3134  -0.0000  -0.0000   0.0000  -0.0000  -1.2394
 240 H_a :3d1-  -0.1485   0.0000  -0.2805  -0.1505   1.3178   0.5159  -0.0000
 241 H_a :3d0    0.0593  -0.0000   0.1791   0.1809   0.6139  -0.6164   0.0000
 242 H_a :3d1+   0.0000  -0.2469  -0.0000  -0.0000   0.0000  -0.0000  -0.5222
 243 H_a :3d2+  -0.1541  -0.0000  -0.1004   0.3365  -0.0567  -1.0024  -0.0000
 265 H_a :4f3-   0.0142   0.0000   0.0013   0.0071  -0.0431   0.0676  -0.0000
 266 H_a :4f2-   0.0000   0.0393  -0.0000  -0.0000   0.0000  -0.0000  -0.0141
 267 H_a :4f1-  -0.0190   0.0000  -0.0248  -0.0199   0.0646   0.0386   0.0000
 268 H_a :4f0   -0.0051  -0.0000   0.0052   0.0039   0.0357   0.0073  -0.0000
 269 H_a :4f1+  -0.0000  -0.0037   0.0000   0.0000  -0.0000   0.0000   0.0298
 270 H_a :4f2+  -0.0080  -0.0000  -0.0011   0.0097   0.0628   0.0088  -0.0000
 271 H_a :4f3+   0.0000  -0.0012  -0.0000  -0.0000   0.0000  -0.0000  -0.1323
 272 H_a :4f3-   0.0239   0.0000   0.0033  -0.0335   0.0170   0.0987   0.0000
 273 H_a :4f2-  -0.0000   0.0393   0.0000   0.0000  -0.0000   0.0000  -0.0424
 274 H_a :4f1-   0.0009   0.0000  -0.0325  -0.0423   0.0788   0.1008  -0.0000
 275 H_a :4f0   -0.0184  -0.0000   0.0053  -0.0092   0.1139  -0.0273   0.0000
 276 H_a :4f1+   0.0000  -0.0126  -0.0000  -0.0000   0.0000  -0.0000  -0.0294
 277 H_a :4f2+  -0.0404   0.0000  -0.0207  -0.0021   0.1146  -0.0299   0.0000
 278 H_a :4f3+   0.0000   0.0326  -0.0000  -0.0000   0.0000  -0.0000  -0.1560
 281 H_b :1s     0.0024  -0.0000  -0.0377  -0.0097   0.0332  -0.0508  -0.0000
 282 H_b :1s    -0.0072  -0.0000  -0.0340   0.1300   0.1443  -0.2347  -0.0000
 283 H_b :1s     0.1431   0.0000  -0.1476  -0.0561   0.0397   0.0285  -0.0000
 284 H_b :1s     1.1882   0.0000  -0.8245   0.1160  -0.0168   0.4945  -0.0000
 285 H_b :1s     2.1880   0.0000  -1.2183   0.5030  -0.7316   1.8584  -0.0000
 286 H_b :1s    -0.6446  -0.0000   0.3764 -17.7610  -2.6359  -0.0051   0.0000
 294 H_b :2py   -0.0084  -0.0000   0.0014   0.0104   0.0153  -0.0164   0.0000
 295 H_b :2pz   -0.0024   0.0000   0.0017  -0.0043  -0.0222  -0.0202   0.0000
 296 H_b :2px   -0.0000  -0.0257   0.0000   0.0000  -0.0000   0.0000   0.1008
 297 H_b :2py   -0.0528  -0.0000   0.0541   0.1789   0.0125  -0.0396   0.0000
 298 H_b :2pz   -0.0074   0.0000   0.0344   0.0139  -0.1760  -0.0630   0.0000
 299 H_b :2px   -0.0000  -0.1195   0.0000   0.0000  -0.0000   0.0000   1.9813
 300 H_b :2py   -0.4950  -0.0000   0.2807   0.3860  -0.5331  -0.4603   0.0000
 301 H_b :2pz    0.0245   0.0000   0.1813   0.7053  -3.3364   0.1309  -0.0000
 302 H_b :2px   -0.0000  -0.8015   0.0000   0.0000  -0.0000   0.0000  -0.3342
 303 H_b :2py   -1.5698  -0.0000   0.9441   1.0502   0.1625  -0.3197   0.0000
 304 H_b :2pz    0.3312   0.0000   0.7807  -0.0912  -0.3951  -0.1673   0.0000
 305 H_b :2px   -0.0000  -2.0793   0.0000   0.0000  -0.0000   0.0000 -13.7266
 306 H_b :2py    0.8961   0.0000   1.1702   2.6921   1.0036  11.5637   0.0000
 307 H_b :2pz    0.9508   0.0000   1.9706  -3.8248  12.9662  -0.4515   0.0000
 319 H_b :3d1-  -0.0037   0.0000   0.0058   0.0106  -0.0072  -0.0049   0.0000
 323 H_b :3d2-  -0.0000  -0.0015   0.0000   0.0000  -0.0000   0.0000  -0.0278
 324 H_b :3d1-  -0.0345  -0.0000   0.0513   0.0680  -0.0500   0.0534  -0.0000
 325 H_b :3d0    0.0616   0.0000   0.0376  -0.0290  -0.0420  -0.0788   0.0000
 326 H_b :3d1+  -0.0000  -0.0774   0.0000   0.0000  -0.0000   0.0000  -0.1000
 327 H_b :3d2+   0.0205   0.0000  -0.0074  -0.0167  -0.1278  -0.0391  -0.0000
 328 H_b :3d2-  -0.0000  -0.2974   0.0000   0.0000  -0.0000   0.0000  -1.3456
 329 H_b :3d1-   0.1311  -0.0000   0.1949  -0.2719   1.7280  -0.2208   0.0000
 330 H_b :3d0    0.0386  -0.0000   0.1537  -0.1008  -0.2152  -0.4485   0.0000
 331 H_b :3d1+   0.0000  -0.1913  -0.0000  -0.0000   0.0000  -0.0000   0.1086
 332 H_b :3d2+  -0.1379  -0.0000  -0.0214  -0.3558   0.5305  -0.7109   0.0000
 333 H_b :3d2-  -0.0000  -0.3134   0.0000   0.0000  -0.0000   0.0000  -1.2394
 334 H_b :3d1-   0.1485  -0.0000   0.2805  -0.1505   1.3178  -0.5159   0.0000
 335 H_b :3d0    0.0593  -0.0000   0.1791  -0.1809  -0.6139  -0.6164  -0.0000
 336 H_b :3d1+   0.0000  -0.2469  -0.0000  -0.0000   0.0000  -0.0000   0.5222
 337 H_b :3d2+  -0.1541  -0.0000  -0.1004  -0.3365   0.0567  -1.0024   0.0000
 359 H_b :4f3-  -0.0142  -0.0000  -0.0013   0.0071  -0.0431  -0.0676   0.0000
 360 H_b :4f2-  -0.0000  -0.0393   0.0000   0.0000  -0.0000   0.0000  -0.0141
 361 H_b :4f1-   0.0190  -0.0000   0.0248  -0.0199   0.0646  -0.0386  -0.0000
 362 H_b :4f0   -0.0051   0.0000   0.0052  -0.0039  -0.0357   0.0073  -0.0000
 363 H_b :4f1+  -0.0000  -0.0037   0.0000   0.0000  -0.0000   0.0000  -0.0298
 364 H_b :4f2+  -0.0080  -0.0000  -0.0011  -0.0097  -0.0628   0.0088  -0.0000
 365 H_b :4f3+   0.0000  -0.0012  -0.0000  -0.0000   0.0000  -0.0000   0.1323
 366 H_b :4f3-  -0.0239  -0.0000  -0.0033  -0.0335   0.0170  -0.0987   0.0000
 367 H_b :4f2-   0.0000  -0.0393  -0.0000  -0.0000   0.0000  -0.0000  -0.0424
 368 H_b :4f1-  -0.0009  -0.0000   0.0325  -0.0423   0.0788  -0.1008   0.0000
 369 H_b :4f0   -0.0184  -0.0000   0.0053   0.0092  -0.1139  -0.0273   0.0000
 370 H_b :4f1+   0.0000  -0.0126  -0.0000  -0.0000   0.0000  -0.0000   0.0294
 371 H_b :4f2+  -0.0404  -0.0000  -0.0207   0.0021  -0.1146  -0.0299  -0.0000
 372 H_b :4f3+   0.0000   0.0326  -0.0000  -0.0000   0.0000  -0.0000   0.1560

    Orbital        15
   2 O_a :1s    -0.0188
   4 O_a :1s    -0.0124
   5 O_a :1s    -0.0942
   9 O_a :1s    -0.3706
  10 O_a :1s    -0.3220
  11 O_a :1s     2.7708
  12 O_a :1s    10.2928
  15 O_a :2pz    0.0201
  21 O_a :2pz    0.0107
  24 O_a :2pz    0.0489
  36 O_a :2pz    0.2031
  39 O_a :2pz    0.7418
  42 O_a :2pz    2.4264
  45 O_a :2pz    3.4588
  75 O_a :3d2+  -0.0204
  78 O_a :3d0    0.1660
  80 O_a :3d2+  -0.0725
  83 O_a :3d0   -0.5798
  85 O_a :3d2+  -0.8789
  88 O_a :3d0   -1.0348
  90 O_a :3d2+  -1.3301
 129 O_a :4f0   -0.0934
 131 O_a :4f2+  -0.0195
 136 O_a :4f0    0.1663
 138 O_a :4f2+   0.2167
 180 O_a :5g0    0.0149
 188 H_a :1s     0.0372
 189 H_a :1s    -0.2935
 190 H_a :1s    -2.7395
 191 H_a :1s    -3.8252
 192 H_a :1s     0.4441
 200 H_a :2py   -0.0169
 203 H_a :2py   -0.1127
 204 H_a :2pz    0.0107
 206 H_a :2py   -1.1856
 207 H_a :2pz   -0.2291
 209 H_a :2py   -3.6828
 210 H_a :2pz   -1.1185
 212 H_a :2py    2.2918
 213 H_a :2pz   -2.5664
 226 H_a :3d0   -0.0117
 228 H_a :3d2+  -0.0111
 230 H_a :3d1-  -0.0515
 231 H_a :3d0   -0.1580
 233 H_a :3d2+  -0.0541
 235 H_a :3d1-   0.3428
 236 H_a :3d0    0.1469
 238 H_a :3d2+   0.2454
 240 H_a :3d1-   0.4277
 241 H_a :3d0    0.1781
 243 H_a :3d2+   0.2568
 265 H_a :4f3-  -0.0266
 267 H_a :4f1-   0.0347
 268 H_a :4f0    0.0203
 270 H_a :4f2+   0.0128
 272 H_a :4f3-  -0.0451
 274 H_a :4f1-  -0.0296
 275 H_a :4f0    0.0786
 277 H_a :4f2+   0.0966
 282 H_b :1s     0.0372
 283 H_b :1s    -0.2935
 284 H_b :1s    -2.7395
 285 H_b :1s    -3.8252
 286 H_b :1s     0.4441
 294 H_b :2py    0.0169
 297 H_b :2py    0.1127
 298 H_b :2pz    0.0107
 300 H_b :2py    1.1856
 301 H_b :2pz   -0.2291
 303 H_b :2py    3.6828
 304 H_b :2pz   -1.1185
 306 H_b :2py   -2.2918
 307 H_b :2pz   -2.5664
 320 H_b :3d0   -0.0117
 322 H_b :3d2+  -0.0111
 324 H_b :3d1-   0.0515
 325 H_b :3d0   -0.1580
 327 H_b :3d2+  -0.0541
 329 H_b :3d1-  -0.3428
 330 H_b :3d0    0.1469
 332 H_b :3d2+   0.2454
 334 H_b :3d1-  -0.4277
 335 H_b :3d0    0.1781
 337 H_b :3d2+   0.2568
 359 H_b :4f3-   0.0266
 361 H_b :4f1-  -0.0347
 362 H_b :4f0    0.0203
 364 H_b :4f2+   0.0128
 366 H_b :4f3-   0.0451
 368 H_b :4f1-   0.0296
 369 H_b :4f0    0.0786
 371 H_b :4f2+   0.0966

  Total CPU  time used in SIRIUS :  1 minute  18 seconds
  Total wall time used in SIRIUS :  1 minute  18 seconds

 
     Date and time (Linux)  : Mon Jul 22 11:23:22 2024
     Host name              : sn-mem                                  

 NOTE:    1 warnings have been issued.
 Check output, result, and error files for "WARNING".


                     .---------------------------------------.
                     | End of Wave Function Section (SIRIUS) |
                     `---------------------------------------'



                 .------------------------------------------------.
                 | Starting in Dynamic Property Section (RESPONS) |
                 `------------------------------------------------'


 ----------------------------------------------------------------------------------------
  RESPONSE  -  an MCSCF, MC-srDFT, DFT, SOPPA and SOPPA-srDFT response property program
 ----------------------------------------------------------------------------------------


 -------- OUTPUT FROM RESPONSE INPUT PROCESSING --------




 Quadratic Response calculation
 ------------------------------

 First hyperpolarizability calculation : HYPCAL= T

 Spin of operator A , ISPINA=    0
 Spin of operator B , ISPINB=    0
 Spin of operator C , ISPINC=    0

  5 B-frequencies  0.000000D+00  1.986669D-02  3.973338D-02  5.960006D-02  7.946675D-02
  5 C-frequencies  0.000000D+00  1.986669D-02  3.973338D-02  5.960006D-02  7.946675D-02


 Print level                                    : IPRHYP =   2
 Maximum number of iterations in lin.rsp. solver: MAXITL =  60
 Threshold for convergence of linear resp. eq.s : THCLR  = 1.000D-03
 Maximum iterations in optimal orbital algorithm: MAXITO =   5
 Direct one-index transformation                : DIROIT = T

    3 A OPERATORS OF SYMMETRY NO:    1 AND LABELS:

          XDIPLEN 
          YDIPLEN 
          ZDIPLEN 

    3 B OPERATORS OF SYMMETRY NO:    1 AND LABELS:

          XDIPLEN 
          YDIPLEN 
          ZDIPLEN 

    3 C OPERATORS OF SYMMETRY NO:    1 AND LABELS:

          XDIPLEN 
          YDIPLEN 
          ZDIPLEN 


   SCF energy         :      -76.066078232577425
 -- inactive part     :      -85.255612010164270
 -- nuclear repulsion :        9.189533777586849


                     ***************************************
                     *** RHF response calculation (TDHF) ***
                     ***************************************



 Linear response calculations for quadratic response
 - singlet property operator of symmetry    1  ( A  )


 Perturbation symmetry.     KSYMOP:           1
 Perturbation spin symmetry.TRPLET:           F
 Orbital variables.         KZWOPT:        1800
 Configuration variables.   KZCONF:           0
 Total number of variables. KZVAR :        1800


 QRLRVE -- linear response calculation for symmetry  1  ( A  )
 QRLRVE -- operator label : XDIPLEN 
 QRLRVE -- operator spin  :   0
 QRLRVE -- frequencies :  0.000000  0.019867  0.039733  0.059600  0.079467
                          0.099333  0.119200  0.139067  0.158934



 ---  SOLVING SETS OF LINEAR EQUATIONS FOR LINEAR RESPONSE PROPERTIES ---

 Operator symmetry = 1  ( A  ); triplet =   F


 ** RSPCTL MICROITERATION NUMBER    1

       No.  Residual tot.,    conf., and orb.    Bnorm      Frequency 
      ----------------------------------------------------------------
         1    7.04285D-01  0.00D+00  7.04D-01  2.36D+00    0.00000D+00
         2    7.05109D-01  0.00D+00  7.05D-01  2.36D+00    1.98667D-02
         3    7.07610D-01  0.00D+00  7.08D-01  2.38D+00    3.97334D-02
         4    7.11879D-01  0.00D+00  7.12D-01  2.42D+00    5.96001D-02
         5    7.18078D-01  0.00D+00  7.18D-01  2.46D+00    7.94668D-02
         6    7.26457D-01  0.00D+00  7.26D-01  2.53D+00    9.93334D-02
         7    7.37387D-01  0.00D+00  7.37D-01  2.61D+00    1.19200D-01
         8    7.51403D-01  0.00D+00  7.51D-01  2.71D+00    1.39067D-01
         9    7.69290D-01  0.00D+00  7.69D-01  2.84D+00    1.58934D-01

 ** RSPCTL MICROITERATION NUMBER    2

       No.  Residual tot.,    conf., and orb.    Bnorm      Frequency 
      ----------------------------------------------------------------
         1    8.04005D-02  0.00D+00  8.04D-02  2.45D+00    0.00000D+00
         2    8.07344D-02  0.00D+00  8.07D-02  2.46D+00    1.98667D-02
         3    8.17588D-02  0.00D+00  8.18D-02  2.49D+00    3.97334D-02
         4    8.35449D-02  0.00D+00  8.35D-02  2.53D+00    5.96001D-02
         5    8.62224D-02  0.00D+00  8.62D-02  2.58D+00    7.94668D-02
         6    8.99994D-02  0.00D+00  9.00D-02  2.66D+00    9.93334D-02
         7    9.51964D-02  0.00D+00  9.52D-02  2.77D+00    1.19200D-01
         8    1.02305D-01  0.00D+00  1.02D-01  2.91D+00    1.39067D-01
         9    1.12095D-01  0.00D+00  1.12D-01  3.09D+00    1.58934D-01

 ** RSPCTL MICROITERATION NUMBER    3

       No.  Residual tot.,    conf., and orb.    Bnorm      Frequency 
      ----------------------------------------------------------------
         1    7.90208D-03  0.00D+00  7.90D-03  2.46D+00    0.00000D+00
         2    8.03344D-03  0.00D+00  8.03D-03  2.46D+00    1.98667D-02
         3    8.42991D-03  0.00D+00  8.43D-03  2.49D+00    3.97334D-02
         4    9.10060D-03  0.00D+00  9.10D-03  2.53D+00    5.96001D-02
         5    1.00669D-02  0.00D+00  1.01D-02  2.59D+00    7.94668D-02
         6    1.13703D-02  0.00D+00  1.14D-02  2.67D+00    9.93334D-02
         7    1.30842D-02  0.00D+00  1.31D-02  2.77D+00    1.19200D-01
         8    1.53309D-02  0.00D+00  1.53D-02  2.91D+00    1.39067D-01
         9    1.83121D-02  0.00D+00  1.83D-02  3.10D+00    1.58934D-01

 ** RSPCTL MICROITERATION NUMBER    4

       No.  Residual tot.,    conf., and orb.    Bnorm      Frequency 
      ----------------------------------------------------------------
         1    1.48513D-03  0.00D+00  1.49D-03  2.46D+00    0.00000D+00
         2    1.50275D-03  0.00D+00  1.50D-03  2.46D+00    1.98667D-02
         3    1.55713D-03  0.00D+00  1.56D-03  2.49D+00    3.97334D-02
         4    1.65301D-03  0.00D+00  1.65D-03  2.53D+00    5.96001D-02
         5    1.79894D-03  0.00D+00  1.80D-03  2.59D+00    7.94668D-02
         6    2.00850D-03  0.00D+00  2.01D-03  2.67D+00    9.93334D-02
         7    2.30244D-03  0.00D+00  2.30D-03  2.77D+00    1.19200D-01
         8    2.71267D-03  0.00D+00  2.71D-03  2.91D+00    1.39067D-01
         9    3.28955D-03  0.00D+00  3.29D-03  3.10D+00    1.58934D-01

 ** RSPCTL MICROITERATION NUMBER    5

       No.  Residual tot.,    conf., and orb.    Bnorm      Frequency 
      ----------------------------------------------------------------
         1    8.17589D-04  0.00D+00  8.18D-04  2.46D+00    0.00000D+00
         2    8.06486D-04  0.00D+00  8.06D-04  2.46D+00    1.98667D-02
         3    7.72270D-04  0.00D+00  7.72D-04  2.49D+00    3.97334D-02
         4    7.12301D-04  0.00D+00  7.12D-04  2.53D+00    5.96001D-02
         5    6.22941D-04  0.00D+00  6.23D-04  2.59D+00    7.94668D-02
         6    5.04024D-04  0.00D+00  5.04D-04  2.67D+00    9.93334D-02
         7    3.86100D-04  0.00D+00  3.86D-04  2.77D+00    1.19200D-01
         8    4.33334D-04  0.00D+00  4.33D-04  2.91D+00    1.39067D-01
         9    8.15923D-04  0.00D+00  8.16D-04  3.10D+00    1.58934D-01

 *** THE REQUESTED    9 SOLUTION VECTORS CONVERGED

 Convergence of RSP solution vectors, threshold = 1.00D-03
 ---------------------------------------------------------------
 (dimension of paired reduced space:   74)
 RSP solution vector no.    1; norm of residual   3.33D-04
 RSP solution vector no.    2; norm of residual   3.27D-04
 RSP solution vector no.    3; norm of residual   3.11D-04
 RSP solution vector no.    4; norm of residual   2.82D-04
 RSP solution vector no.    5; norm of residual   2.41D-04
 RSP solution vector no.    6; norm of residual   1.89D-04
 RSP solution vector no.    7; norm of residual   1.39D-04
 RSP solution vector no.    8; norm of residual   1.49D-04
 RSP solution vector no.    9; norm of residual   2.63D-04

 *** RSPCTL MICROITERATIONS CONVERGED

@ QRLRVE: SINGLET SOLUTION FOR SYMMETRY    1  ( A  )    LABEL   XDIPLEN     FREQUENCY   0.000000D+00

@ QRLRVE:  << XDIPLEN  ; XDIPLEN  >> (   0.00000):     7.90595870216    

@ QRLRVE:  << YDIPLEN  ; XDIPLEN  >> (   0.00000):   -1.287738726904E-16

@ QRLRVE:  << ZDIPLEN  ; XDIPLEN  >> (   0.00000):    7.565215325312E-16

@ QRLRVE: SINGLET SOLUTION FOR SYMMETRY    1  ( A  )    LABEL   XDIPLEN     FREQUENCY   0.198667D-01

@ QRLRVE:  << XDIPLEN  ; XDIPLEN  >> (   0.01987):     7.91651310946    

@ QRLRVE:  << YDIPLEN  ; XDIPLEN  >> (   0.01987):   -1.292568294493E-16

@ QRLRVE:  << ZDIPLEN  ; XDIPLEN  >> (   0.01987):    7.693527611320E-16

@ QRLRVE: SINGLET SOLUTION FOR SYMMETRY    1  ( A  )    LABEL   XDIPLEN     FREQUENCY   0.397334D-01

@ QRLRVE:  << XDIPLEN  ; XDIPLEN  >> (   0.03973):     7.94850680756    

@ QRLRVE:  << YDIPLEN  ; XDIPLEN  >> (   0.03973):   -1.307284877213E-16

@ QRLRVE:  << ZDIPLEN  ; XDIPLEN  >> (   0.03973):    8.088993643635E-16

@ QRLRVE: SINGLET SOLUTION FOR SYMMETRY    1  ( A  )    LABEL   XDIPLEN     FREQUENCY   0.596001D-01

@ QRLRVE:  << XDIPLEN  ; XDIPLEN  >> (   0.05960):     8.00296562645    

@ QRLRVE:  << YDIPLEN  ; XDIPLEN  >> (   0.05960):   -1.332600505473E-16

@ QRLRVE:  << ZDIPLEN  ; XDIPLEN  >> (   0.05960):    8.784867659183E-16

@ QRLRVE: SINGLET SOLUTION FOR SYMMETRY    1  ( A  )    LABEL   XDIPLEN     FREQUENCY   0.794668D-01

@ QRLRVE:  << XDIPLEN  ; XDIPLEN  >> (   0.07947):     8.08172151220    

@ QRLRVE:  << YDIPLEN  ; XDIPLEN  >> (   0.07947):   -1.369803346842E-16

@ QRLRVE:  << ZDIPLEN  ; XDIPLEN  >> (   0.07947):    9.842575930333E-16

@ QRLRVE: SINGLET SOLUTION FOR SYMMETRY    1  ( A  )    LABEL   XDIPLEN     FREQUENCY   0.993334D-01

@ QRLRVE:  << XDIPLEN  ; XDIPLEN  >> (   0.09933):     8.18762519585    

@ QRLRVE:  << YDIPLEN  ; XDIPLEN  >> (   0.09933):   -1.420936448086E-16

@ QRLRVE:  << ZDIPLEN  ; XDIPLEN  >> (   0.09933):    1.136247174419E-15

@ QRLRVE: SINGLET SOLUTION FOR SYMMETRY    1  ( A  )    LABEL   XDIPLEN     FREQUENCY   0.119200D+00

@ QRLRVE:  << XDIPLEN  ; XDIPLEN  >> (   0.11920):     8.32491462001    

@ QRLRVE:  << YDIPLEN  ; XDIPLEN  >> (   0.11920):   -1.489112530637E-16

@ QRLRVE:  << ZDIPLEN  ; XDIPLEN  >> (   0.11920):    1.350318540922E-15

@ QRLRVE: SINGLET SOLUTION FOR SYMMETRY    1  ( A  )    LABEL   XDIPLEN     FREQUENCY   0.139067D+00

@ QRLRVE:  << XDIPLEN  ; XDIPLEN  >> (   0.13907):     8.49984564515    

@ QRLRVE:  << YDIPLEN  ; XDIPLEN  >> (   0.13907):   -1.579063578065E-16

@ QRLRVE:  << ZDIPLEN  ; XDIPLEN  >> (   0.13907):    1.651623914876E-15

@ QRLRVE: SINGLET SOLUTION FOR SYMMETRY    1  ( A  )    LABEL   XDIPLEN     FREQUENCY   0.158934D+00

@ QRLRVE:  << XDIPLEN  ; XDIPLEN  >> (   0.15893):     8.72180047639    

@ QRLRVE:  << YDIPLEN  ; XDIPLEN  >> (   0.15893):   -1.698127648891E-16

@ QRLRVE:  << ZDIPLEN  ; XDIPLEN  >> (   0.15893):    2.080978445934E-15


 QRLRVE -- linear response calculation for symmetry  1  ( A  )
 QRLRVE -- operator label : YDIPLEN 
 QRLRVE -- operator spin  :   0
 QRLRVE -- frequencies :  0.000000  0.019867  0.039733  0.059600  0.079467
                          0.099333  0.119200  0.139067  0.158934



 ---  SOLVING SETS OF LINEAR EQUATIONS FOR LINEAR RESPONSE PROPERTIES ---

 Operator symmetry = 1  ( A  ); triplet =   F


 ** RSPCTL MICROITERATION NUMBER    1

       No.  Residual tot.,    conf., and orb.    Bnorm      Frequency 
      ----------------------------------------------------------------
         1    8.78475D-01  0.00D+00  8.78D-01  2.35D+00    0.00000D+00
         2    8.79120D-01  0.00D+00  8.79D-01  2.35D+00    1.98667D-02
         3    8.81063D-01  0.00D+00  8.81D-01  2.36D+00    3.97334D-02
         4    8.84330D-01  0.00D+00  8.84D-01  2.38D+00    5.96001D-02
         5    8.88965D-01  0.00D+00  8.89D-01  2.41D+00    7.94668D-02
         6    8.95030D-01  0.00D+00  8.95D-01  2.45D+00    9.93334D-02
         7    9.02613D-01  0.00D+00  9.03D-01  2.49D+00    1.19200D-01
         8    9.11825D-01  0.00D+00  9.12D-01  2.55D+00    1.39067D-01
         9    9.22810D-01  0.00D+00  9.23D-01  2.62D+00    1.58934D-01

 ** RSPCTL MICROITERATION NUMBER    2

       No.  Residual tot.,    conf., and orb.    Bnorm      Frequency 
      ----------------------------------------------------------------
         1    9.78698D-02  0.00D+00  9.79D-02  2.43D+00    0.00000D+00
         2    9.80609D-02  0.00D+00  9.81D-02  2.44D+00    1.98667D-02
         3    9.86392D-02  0.00D+00  9.86D-02  2.45D+00    3.97334D-02
         4    9.96195D-02  0.00D+00  9.96D-02  2.47D+00    5.96001D-02
         5    1.01027D-01  0.00D+00  1.01D-01  2.50D+00    7.94668D-02
         6    1.02901D-01  0.00D+00  1.03D-01  2.54D+00    9.93334D-02
         7    1.05292D-01  0.00D+00  1.05D-01  2.59D+00    1.19200D-01
         8    1.08272D-01  0.00D+00  1.08D-01  2.65D+00    1.39067D-01
         9    1.11931D-01  0.00D+00  1.12D-01  2.73D+00    1.58934D-01

 ** RSPCTL MICROITERATION NUMBER    3

       No.  Residual tot.,    conf., and orb.    Bnorm      Frequency 
      ----------------------------------------------------------------
         1    8.28703D-03  0.00D+00  8.29D-03  2.43D+00    0.00000D+00
         2    8.33544D-03  0.00D+00  8.34D-03  2.44D+00    1.98667D-02
         3    8.48157D-03  0.00D+00  8.48D-03  2.45D+00    3.97334D-02
         4    8.72817D-03  0.00D+00  8.73D-03  2.47D+00    5.96001D-02
         5    9.08014D-03  0.00D+00  9.08D-03  2.50D+00    7.94668D-02
         6    9.54499D-03  0.00D+00  9.54D-03  2.54D+00    9.93334D-02
         7    1.01335D-02  0.00D+00  1.01D-02  2.59D+00    1.19200D-01
         8    1.08607D-02  0.00D+00  1.09D-02  2.65D+00    1.39067D-01
         9    1.17472D-02  0.00D+00  1.17D-02  2.73D+00    1.58934D-01

 ** RSPCTL MICROITERATION NUMBER    4

       No.  Residual tot.,    conf., and orb.    Bnorm      Frequency 
      ----------------------------------------------------------------
         1    2.06138D-03  0.00D+00  2.06D-03  2.43D+00    0.00000D+00
         2    2.07221D-03  0.00D+00  2.07D-03  2.44D+00    1.98667D-02
         3    2.10506D-03  0.00D+00  2.11D-03  2.45D+00    3.97334D-02
         4    2.16103D-03  0.00D+00  2.16D-03  2.47D+00    5.96001D-02
         5    2.24204D-03  0.00D+00  2.24D-03  2.50D+00    7.94668D-02
         6    2.35098D-03  0.00D+00  2.35D-03  2.54D+00    9.93334D-02
         7    2.49191D-03  0.00D+00  2.49D-03  2.59D+00    1.19200D-01
         8    2.67043D-03  0.00D+00  2.67D-03  2.65D+00    1.39067D-01
         9    2.89412D-03  0.00D+00  2.89D-03  2.73D+00    1.58934D-01

 ** RSPCTL MICROITERATION NUMBER    5

       No.  Residual tot.,    conf., and orb.    Bnorm      Frequency 
      ----------------------------------------------------------------
         1    4.76739D-04  0.00D+00  4.77D-04  2.43D+00    0.00000D+00
         2    4.79265D-04  0.00D+00  4.79D-04  2.44D+00    1.98667D-02
         3    4.86916D-04  0.00D+00  4.87D-04  2.45D+00    3.97334D-02
         4    4.99917D-04  0.00D+00  5.00D-04  2.47D+00    5.96001D-02
         5    5.18649D-04  0.00D+00  5.19D-04  2.50D+00    7.94668D-02
         6    5.43672D-04  0.00D+00  5.44D-04  2.54D+00    9.93334D-02
         7    5.75752D-04  0.00D+00  5.76D-04  2.59D+00    1.19200D-01
         8    6.15915D-04  0.00D+00  6.16D-04  2.65D+00    1.39067D-01
         9    6.65542D-04  0.00D+00  6.66D-04  2.73D+00    1.58934D-01

 *** THE REQUESTED    9 SOLUTION VECTORS CONVERGED

 Convergence of RSP solution vectors, threshold = 1.00D-03
 ---------------------------------------------------------------
 (dimension of paired reduced space:   76)
 RSP solution vector no.    1; norm of residual   1.96D-04
 RSP solution vector no.    2; norm of residual   1.97D-04
 RSP solution vector no.    3; norm of residual   1.99D-04
 RSP solution vector no.    4; norm of residual   2.02D-04
 RSP solution vector no.    5; norm of residual   2.07D-04
 RSP solution vector no.    6; norm of residual   2.14D-04
 RSP solution vector no.    7; norm of residual   2.22D-04
 RSP solution vector no.    8; norm of residual   2.32D-04
 RSP solution vector no.    9; norm of residual   2.44D-04

 *** RSPCTL MICROITERATIONS CONVERGED

@ QRLRVE: SINGLET SOLUTION FOR SYMMETRY    1  ( A  )    LABEL   YDIPLEN     FREQUENCY   0.000000D+00

@ QRLRVE:  << XDIPLEN  ; YDIPLEN  >> (   0.00000):   -1.245500790540E-16

@ QRLRVE:  << YDIPLEN  ; YDIPLEN  >> (   0.00000):     9.19467884541    

@ QRLRVE:  << ZDIPLEN  ; YDIPLEN  >> (   0.00000):   -8.706522410719E-05

@ QRLRVE: SINGLET SOLUTION FOR SYMMETRY    1  ( A  )    LABEL   YDIPLEN     FREQUENCY   0.198667D-01

@ QRLRVE:  << XDIPLEN  ; YDIPLEN  >> (   0.01987):   -1.249260396727E-16

@ QRLRVE:  << YDIPLEN  ; YDIPLEN  >> (   0.01987):     9.20303461617    

@ QRLRVE:  << ZDIPLEN  ; YDIPLEN  >> (   0.01987):   -8.824735822675E-05

@ QRLRVE: SINGLET SOLUTION FOR SYMMETRY    1  ( A  )    LABEL   YDIPLEN     FREQUENCY   0.397334D-01

@ QRLRVE:  << XDIPLEN  ; YDIPLEN  >> (   0.03973):   -1.260681604463E-16

@ QRLRVE:  << YDIPLEN  ; YDIPLEN  >> (   0.03973):     9.22822099235    

@ QRLRVE:  << ZDIPLEN  ; YDIPLEN  >> (   0.03973):   -9.183782510769E-05

@ QRLRVE: SINGLET SOLUTION FOR SYMMETRY    1  ( A  )    LABEL   YDIPLEN     FREQUENCY   0.596001D-01

@ QRLRVE:  << XDIPLEN  ; YDIPLEN  >> (   0.05960):   -1.280204587206E-16

@ QRLRVE:  << YDIPLEN  ; YDIPLEN  >> (   0.05960):     9.27060002982    

@ QRLRVE:  << ZDIPLEN  ; YDIPLEN  >> (   0.05960):   -9.797161478329E-05

@ QRLRVE: SINGLET SOLUTION FOR SYMMETRY    1  ( A  )    LABEL   YDIPLEN     FREQUENCY   0.794668D-01

@ QRLRVE:  << XDIPLEN  ; YDIPLEN  >> (   0.07947):   -1.308608332538E-16

@ QRLRVE:  << YDIPLEN  ; YDIPLEN  >> (   0.07947):     9.33079177308    

@ QRLRVE:  << ZDIPLEN  ; YDIPLEN  >> (   0.07947):   -1.068833091217E-04

@ QRLRVE: SINGLET SOLUTION FOR SYMMETRY    1  ( A  )    LABEL   YDIPLEN     FREQUENCY   0.993334D-01

@ QRLRVE:  << XDIPLEN  ; YDIPLEN  >> (   0.09933):   -1.347086190850E-16

@ QRLRVE:  << YDIPLEN  ; YDIPLEN  >> (   0.09933):     9.40970065351    

@ QRLRVE:  << ZDIPLEN  ; YDIPLEN  >> (   0.09933):   -1.189224881515E-04

@ QRLRVE: SINGLET SOLUTION FOR SYMMETRY    1  ( A  )    LABEL   YDIPLEN     FREQUENCY   0.119200D+00

@ QRLRVE:  << XDIPLEN  ; YDIPLEN  >> (   0.11920):   -1.397368441292E-16

@ QRLRVE:  << YDIPLEN  ; YDIPLEN  >> (   0.11920):     9.50855560925    

@ QRLRVE:  << ZDIPLEN  ; YDIPLEN  >> (   0.11920):   -1.345774653208E-04

@ QRLRVE: SINGLET SOLUTION FOR SYMMETRY    1  ( A  )    LABEL   YDIPLEN     FREQUENCY   0.139067D+00

@ QRLRVE:  << XDIPLEN  ; YDIPLEN  >> (   0.13907):   -1.461913454382E-16

@ QRLRVE:  << YDIPLEN  ; YDIPLEN  >> (   0.13907):     9.62896765155    

@ QRLRVE:  << ZDIPLEN  ; YDIPLEN  >> (   0.13907):   -1.545098950338E-04

@ QRLRVE: SINGLET SOLUTION FOR SYMMETRY    1  ( A  )    LABEL   YDIPLEN     FREQUENCY   0.158934D+00

@ QRLRVE:  << XDIPLEN  ; YDIPLEN  >> (   0.15893):   -1.544203806317E-16

@ QRLRVE:  << YDIPLEN  ; YDIPLEN  >> (   0.15893):     9.77301061767    

@ QRLRVE:  << ZDIPLEN  ; YDIPLEN  >> (   0.15893):   -1.796041414897E-04


 QRLRVE -- linear response calculation for symmetry  1  ( A  )
 QRLRVE -- operator label : ZDIPLEN 
 QRLRVE -- operator spin  :   0
 QRLRVE -- frequencies :  0.000000  0.019867  0.039733  0.059600  0.079467
                          0.099333  0.119200  0.139067  0.158934



 ---  SOLVING SETS OF LINEAR EQUATIONS FOR LINEAR RESPONSE PROPERTIES ---

 Operator symmetry = 1  ( A  ); triplet =   F


 ** RSPCTL MICROITERATION NUMBER    1

       No.  Residual tot.,    conf., and orb.    Bnorm      Frequency 
      ----------------------------------------------------------------
         1    1.54437D+00  0.00D+00  1.54D+00  2.21D+00    0.00000D+00
         2    1.54586D+00  0.00D+00  1.55D+00  2.22D+00    1.98667D-02
         3    1.55034D+00  0.00D+00  1.55D+00  2.23D+00    3.97334D-02
         4    1.55791D+00  0.00D+00  1.56D+00  2.25D+00    5.96001D-02
         5    1.56870D+00  0.00D+00  1.57D+00  2.29D+00    7.94668D-02
         6    1.58291D+00  0.00D+00  1.58D+00  2.33D+00    9.93334D-02
         7    1.60083D+00  0.00D+00  1.60D+00  2.38D+00    1.19200D-01
         8    1.62285D+00  0.00D+00  1.62D+00  2.45D+00    1.39067D-01
         9    1.64946D+00  0.00D+00  1.65D+00  2.53D+00    1.58934D-01

 ** RSPCTL MICROITERATION NUMBER    2

       No.  Residual tot.,    conf., and orb.    Bnorm      Frequency 
      ----------------------------------------------------------------
         1    4.08927D-01  0.00D+00  4.09D-01  2.40D+00    0.00000D+00
         2    4.09625D-01  0.00D+00  4.10D-01  2.41D+00    1.98667D-02
         3    4.11737D-01  0.00D+00  4.12D-01  2.42D+00    3.97334D-02
         4    4.15315D-01  0.00D+00  4.15D-01  2.45D+00    5.96001D-02
         5    4.20454D-01  0.00D+00  4.20D-01  2.49D+00    7.94668D-02
         6    4.27294D-01  0.00D+00  4.27D-01  2.54D+00    9.93334D-02
         7    4.36034D-01  0.00D+00  4.36D-01  2.61D+00    1.19200D-01
         8    4.46949D-01  0.00D+00  4.47D-01  2.69D+00    1.39067D-01
         9    4.60414D-01  0.00D+00  4.60D-01  2.80D+00    1.58934D-01

 ** RSPCTL MICROITERATION NUMBER    3

       No.  Residual tot.,    conf., and orb.    Bnorm      Frequency 
      ----------------------------------------------------------------
         1    5.22413D-02  0.00D+00  5.22D-02  2.42D+00    0.00000D+00
         2    5.23677D-02  0.00D+00  5.24D-02  2.42D+00    1.98667D-02
         3    5.27507D-02  0.00D+00  5.28D-02  2.44D+00    3.97334D-02
         4    5.34018D-02  0.00D+00  5.34D-02  2.47D+00    5.96001D-02
         5    5.43411D-02  0.00D+00  5.43D-02  2.51D+00    7.94668D-02
         6    5.55993D-02  0.00D+00  5.56D-02  2.56D+00    9.93334D-02
         7    5.72201D-02  0.00D+00  5.72D-02  2.63D+00    1.19200D-01
         8    5.92651D-02  0.00D+00  5.93D-02  2.72D+00    1.39067D-01
         9    6.18198D-02  0.00D+00  6.18D-02  2.83D+00    1.58934D-01

 ** RSPCTL MICROITERATION NUMBER    4

       No.  Residual tot.,    conf., and orb.    Bnorm      Frequency 
      ----------------------------------------------------------------
         1    5.99169D-03  0.00D+00  5.99D-03  2.42D+00    0.00000D+00
         2    6.01506D-03  0.00D+00  6.02D-03  2.42D+00    1.98667D-02
         3    6.08603D-03  0.00D+00  6.09D-03  2.44D+00    3.97334D-02
         4    6.20721D-03  0.00D+00  6.21D-03  2.47D+00    5.96001D-02
         5    6.38323D-03  0.00D+00  6.38D-03  2.51D+00    7.94668D-02
         6    6.62109D-03  0.00D+00  6.62D-03  2.56D+00    9.93334D-02
         7    6.93085D-03  0.00D+00  6.93D-03  2.63D+00    1.19200D-01
         8    7.32663D-03  0.00D+00  7.33D-03  2.72D+00    1.39067D-01
         9    7.82819D-03  0.00D+00  7.83D-03  2.83D+00    1.58934D-01

 ** RSPCTL MICROITERATION NUMBER    5

       No.  Residual tot.,    conf., and orb.    Bnorm      Frequency 
      ----------------------------------------------------------------
         1    1.02933D-03  0.00D+00  1.03D-03  2.42D+00    0.00000D+00
         2    1.03461D-03  0.00D+00  1.03D-03  2.42D+00    1.98667D-02
         3    1.05066D-03  0.00D+00  1.05D-03  2.44D+00    3.97334D-02
         4    1.07814D-03  0.00D+00  1.08D-03  2.47D+00    5.96001D-02
         5    1.11820D-03  0.00D+00  1.12D-03  2.51D+00    7.94668D-02
         6    1.17261D-03  0.00D+00  1.17D-03  2.56D+00    9.93334D-02
         7    1.24390D-03  0.00D+00  1.24D-03  2.63D+00    1.19200D-01
         8    1.33566D-03  0.00D+00  1.34D-03  2.72D+00    1.39067D-01
         9    1.45291D-03  0.00D+00  1.45D-03  2.83D+00    1.58934D-01

 *** THE REQUESTED    9 SOLUTION VECTORS CONVERGED

 Convergence of RSP solution vectors, threshold = 1.00D-03
 ---------------------------------------------------------------
 (dimension of paired reduced space:   90)
 RSP solution vector no.    1; norm of residual   4.26D-04
 RSP solution vector no.    2; norm of residual   4.27D-04
 RSP solution vector no.    3; norm of residual   4.30D-04
 RSP solution vector no.    4; norm of residual   4.37D-04
 RSP solution vector no.    5; norm of residual   4.46D-04
 RSP solution vector no.    6; norm of residual   4.57D-04
 RSP solution vector no.    7; norm of residual   4.72D-04
 RSP solution vector no.    8; norm of residual   4.91D-04
 RSP solution vector no.    9; norm of residual   5.14D-04

 *** RSPCTL MICROITERATIONS CONVERGED

@ QRLRVE: SINGLET SOLUTION FOR SYMMETRY    1  ( A  )    LABEL   ZDIPLEN     FREQUENCY   0.000000D+00

@ QRLRVE:  << XDIPLEN  ; ZDIPLEN  >> (   0.00000):    1.918789109019E-16

@ QRLRVE:  << YDIPLEN  ; ZDIPLEN  >> (   0.00000):   -2.154890043320E-04

@ QRLRVE:  << ZDIPLEN  ; ZDIPLEN  >> (   0.00000):     8.53295108295    

@ QRLRVE: SINGLET SOLUTION FOR SYMMETRY    1  ( A  )    LABEL   ZDIPLEN     FREQUENCY   0.198667D-01

@ QRLRVE:  << XDIPLEN  ; ZDIPLEN  >> (   0.01987):    1.921111941588E-16

@ QRLRVE:  << YDIPLEN  ; ZDIPLEN  >> (   0.01987):   -2.169255364017E-04

@ QRLRVE:  << ZDIPLEN  ; ZDIPLEN  >> (   0.01987):     8.54208857484    

@ QRLRVE: SINGLET SOLUTION FOR SYMMETRY    1  ( A  )    LABEL   ZDIPLEN     FREQUENCY   0.397334D-01

@ QRLRVE:  << XDIPLEN  ; ZDIPLEN  >> (   0.03973):    1.928080846792E-16

@ QRLRVE:  << YDIPLEN  ; ZDIPLEN  >> (   0.03973):   -2.213146736458E-04

@ QRLRVE:  << ZDIPLEN  ; ZDIPLEN  >> (   0.03973):     8.56968645656    

@ QRLRVE: SINGLET SOLUTION FOR SYMMETRY    1  ( A  )    LABEL   ZDIPLEN     FREQUENCY   0.596001D-01

@ QRLRVE:  << XDIPLEN  ; ZDIPLEN  >> (   0.05960):    1.939651748945E-16

[...]
@ B-freq = 0.059600  C-freq = 0.059600     beta(Y;Z,Y) =     10.37009289
@ B-freq = 0.059600  C-freq = 0.059600     beta(Z;Z,Y) =      0.00178741
@ B-freq = 0.079467  C-freq = 0.059600     beta(X;Z,Y) =     -0.00000000
@ B-freq = 0.079467  C-freq = 0.059600     beta(Y;Z,Y) =     10.75948093
@ B-freq = 0.079467  C-freq = 0.059600     beta(Z;Z,Y) =      0.00198150
@ B-freq = 0.000000  C-freq = 0.079467     beta(X;X,Y) = beta(X,Y,X)
@ B-freq = 0.000000  C-freq = 0.079467     beta(Y;X,Y) = beta(Y,Y,X)
@ B-freq = 0.000000  C-freq = 0.079467     beta(Z;X,Y) = beta(Z,Y,X)
@ B-freq = 0.019867  C-freq = 0.079467     beta(X;X,Y) = beta(X,Y,X)
@ B-freq = 0.019867  C-freq = 0.079467     beta(Y;X,Y) = beta(Y,Y,X)
@ B-freq = 0.019867  C-freq = 0.079467     beta(Z;X,Y) = beta(Z,Y,X)
@ B-freq = 0.039733  C-freq = 0.079467     beta(X;X,Y) = beta(X,Y,X)
@ B-freq = 0.039733  C-freq = 0.079467     beta(Y;X,Y) = beta(Y,Y,X)
@ B-freq = 0.039733  C-freq = 0.079467     beta(Z;X,Y) = beta(Z,Y,X)
@ B-freq = 0.059600  C-freq = 0.079467     beta(X;X,Y) = beta(X,Y,X)
@ B-freq = 0.059600  C-freq = 0.079467     beta(Y;X,Y) = beta(Y,Y,X)
@ B-freq = 0.059600  C-freq = 0.079467     beta(Z;X,Y) = beta(Z,Y,X)
@ B-freq = 0.079467  C-freq = 0.079467     beta(X;X,Y) = beta(X,Y,X)
@ B-freq = 0.079467  C-freq = 0.079467     beta(Y;X,Y) = beta(Y,Y,X)
@ B-freq = 0.079467  C-freq = 0.079467     beta(Z;X,Y) = beta(Z,Y,X)
@ B-freq = 0.000000  C-freq = 0.079467     beta(X;Y,Y) = beta(X,Y,Y)
@ B-freq = 0.000000  C-freq = 0.079467     beta(Y;Y,Y) = beta(Y,Y,Y)
@ B-freq = 0.000000  C-freq = 0.079467     beta(Z;Y,Y) = beta(Z,Y,Y)
@ B-freq = 0.019867  C-freq = 0.079467     beta(X;Y,Y) = beta(X,Y,Y)
@ B-freq = 0.019867  C-freq = 0.079467     beta(Y;Y,Y) = beta(Y,Y,Y)
@ B-freq = 0.019867  C-freq = 0.079467     beta(Z;Y,Y) = beta(Z,Y,Y)
@ B-freq = 0.039733  C-freq = 0.079467     beta(X;Y,Y) = beta(X,Y,Y)
@ B-freq = 0.039733  C-freq = 0.079467     beta(Y;Y,Y) = beta(Y,Y,Y)
@ B-freq = 0.039733  C-freq = 0.079467     beta(Z;Y,Y) = beta(Z,Y,Y)
@ B-freq = 0.059600  C-freq = 0.079467     beta(X;Y,Y) = beta(X,Y,Y)
@ B-freq = 0.059600  C-freq = 0.079467     beta(Y;Y,Y) = beta(Y,Y,Y)
@ B-freq = 0.059600  C-freq = 0.079467     beta(Z;Y,Y) = beta(Z,Y,Y)
@ B-freq = 0.079467  C-freq = 0.079467     beta(X;Y,Y) =      0.00000000
@ B-freq = 0.079467  C-freq = 0.079467     beta(Y;Y,Y) =     -0.00147668
@ B-freq = 0.079467  C-freq = 0.079467     beta(Z;Y,Y) =     11.27676820
@ B-freq = 0.000000  C-freq = 0.079467     beta(X;Z,Y) =     -0.00000000
@ B-freq = 0.000000  C-freq = 0.079467     beta(Y;Z,Y) =      9.96640836
@ B-freq = 0.000000  C-freq = 0.079467     beta(Z;Z,Y) =      0.00156327
@ B-freq = 0.019867  C-freq = 0.079467     beta(X;Z,Y) =     -0.00000000
@ B-freq = 0.019867  C-freq = 0.079467     beta(Y;Z,Y) =     10.14417972
@ B-freq = 0.019867  C-freq = 0.079467     beta(Z;Z,Y) =      0.00164227
@ B-freq = 0.039733  C-freq = 0.079467     beta(X;Z,Y) =     -0.00000000
@ B-freq = 0.039733  C-freq = 0.079467     beta(Y;Z,Y) =     10.40277314
@ B-freq = 0.039733  C-freq = 0.079467     beta(Z;Z,Y) =      0.00176142
@ B-freq = 0.059600  C-freq = 0.079467     beta(X;Z,Y) =     -0.00000000
@ B-freq = 0.059600  C-freq = 0.079467     beta(Y;Z,Y) =     10.75195852
@ B-freq = 0.059600  C-freq = 0.079467     beta(Z;Z,Y) =      0.00193074
@ B-freq = 0.079467  C-freq = 0.079467     beta(X;Z,Y) =     -0.00000000
@ B-freq = 0.079467  C-freq = 0.079467     beta(Y;Z,Y) =     11.20585242
@ B-freq = 0.079467  C-freq = 0.079467     beta(Z;Z,Y) =      0.00216564
@ B-freq = 0.000000  C-freq = 0.000000     beta(X;X,Z) = beta(Z,X,X)
@ B-freq = 0.000000  C-freq = 0.000000     beta(Y;X,Z) = beta(Z,Y,X)
@ B-freq = 0.000000  C-freq = 0.000000     beta(Z;X,Z) = beta(Z,Z,X)
@ B-freq = 0.019867  C-freq = 0.000000     beta(X;X,Z) = beta(X,Z,X)
@ B-freq = 0.019867  C-freq = 0.000000     beta(Y;X,Z) = beta(Y,Z,X)
@ B-freq = 0.019867  C-freq = 0.000000     beta(Z;X,Z) = beta(Z,Z,X)
@ B-freq = 0.039733  C-freq = 0.000000     beta(X;X,Z) = beta(X,Z,X)
@ B-freq = 0.039733  C-freq = 0.000000     beta(Y;X,Z) = beta(Y,Z,X)
@ B-freq = 0.039733  C-freq = 0.000000     beta(Z;X,Z) = beta(Z,Z,X)
@ B-freq = 0.059600  C-freq = 0.000000     beta(X;X,Z) = beta(X,Z,X)
@ B-freq = 0.059600  C-freq = 0.000000     beta(Y;X,Z) = beta(Y,Z,X)
@ B-freq = 0.059600  C-freq = 0.000000     beta(Z;X,Z) = beta(Z,Z,X)
@ B-freq = 0.079467  C-freq = 0.000000     beta(X;X,Z) = beta(X,Z,X)
@ B-freq = 0.079467  C-freq = 0.000000     beta(Y;X,Z) = beta(Y,Z,X)
@ B-freq = 0.079467  C-freq = 0.000000     beta(Z;X,Z) = beta(Z,Z,X)
@ B-freq = 0.000000  C-freq = 0.000000     beta(X;Y,Z) = beta(Z,Y,X)
@ B-freq = 0.000000  C-freq = 0.000000     beta(Y;Y,Z) = beta(Z,Y,Y)
@ B-freq = 0.000000  C-freq = 0.000000     beta(Z;Y,Z) = beta(Z,Z,Y)
@ B-freq = 0.019867  C-freq = 0.000000     beta(X;Y,Z) = beta(X,Z,Y)
@ B-freq = 0.019867  C-freq = 0.000000     beta(Y;Y,Z) = beta(Y,Z,Y)
@ B-freq = 0.019867  C-freq = 0.000000     beta(Z;Y,Z) = beta(Z,Z,Y)
@ B-freq = 0.039733  C-freq = 0.000000     beta(X;Y,Z) = beta(X,Z,Y)
@ B-freq = 0.039733  C-freq = 0.000000     beta(Y;Y,Z) = beta(Y,Z,Y)
@ B-freq = 0.039733  C-freq = 0.000000     beta(Z;Y,Z) = beta(Z,Z,Y)
@ B-freq = 0.059600  C-freq = 0.000000     beta(X;Y,Z) = beta(X,Z,Y)
@ B-freq = 0.059600  C-freq = 0.000000     beta(Y;Y,Z) = beta(Y,Z,Y)
@ B-freq = 0.059600  C-freq = 0.000000     beta(Z;Y,Z) = beta(Z,Z,Y)
@ B-freq = 0.079467  C-freq = 0.000000     beta(X;Y,Z) = beta(X,Z,Y)
@ B-freq = 0.079467  C-freq = 0.000000     beta(Y;Y,Z) = beta(Y,Z,Y)
@ B-freq = 0.079467  C-freq = 0.000000     beta(Z;Y,Z) = beta(Z,Z,Y)
@ B-freq = 0.000000  C-freq = 0.000000     beta(X;Z,Z) = beta(Z,Z,X)
@ B-freq = 0.000000  C-freq = 0.000000     beta(Y;Z,Z) = beta(Z,Z,Y)
@ B-freq = 0.000000  C-freq = 0.000000     beta(X;Z,Z) =      0.00000000
@ B-freq = 0.000000  C-freq = 0.000000     beta(Y;Z,Z) =      0.00140966
@ B-freq = 0.000000  C-freq = 0.000000     beta(Z;Z,Z) =      7.73273493
@ B-freq = 0.019867  C-freq = 0.000000     beta(X;Z,Z) =      0.00000000
@ B-freq = 0.019867  C-freq = 0.000000     beta(Y;Z,Z) =      0.00141873
@ B-freq = 0.019867  C-freq = 0.000000     beta(Z;Z,Z) =      7.76865845
@ B-freq = 0.039733  C-freq = 0.000000     beta(X;Z,Z) =      0.00000000
@ B-freq = 0.039733  C-freq = 0.000000     beta(Y;Z,Z) =      0.00144633
@ B-freq = 0.039733  C-freq = 0.000000     beta(Z;Z,Z) =      7.87803875
@ B-freq = 0.059600  C-freq = 0.000000     beta(X;Z,Z) =      0.00000000
@ B-freq = 0.059600  C-freq = 0.000000     beta(Y;Z,Z) =      0.00149377
@ B-freq = 0.059600  C-freq = 0.000000     beta(Z;Z,Z) =      8.06586998
@ B-freq = 0.079467  C-freq = 0.000000     beta(X;Z,Z) =      0.00000000
@ B-freq = 0.079467  C-freq = 0.000000     beta(Y;Z,Z) =      0.00156327
@ B-freq = 0.079467  C-freq = 0.000000     beta(Z;Z,Z) =      8.34105565
@ B-freq = 0.000000  C-freq = 0.019867     beta(X;X,Z) = beta(X,Z,X)
@ B-freq = 0.000000  C-freq = 0.019867     beta(Y;X,Z) = beta(Y,Z,X)
@ B-freq = 0.000000  C-freq = 0.019867     beta(Z;X,Z) = beta(Z,Z,X)
@ B-freq = 0.019867  C-freq = 0.019867     beta(X;X,Z) = beta(X,Z,X)
@ B-freq = 0.019867  C-freq = 0.019867     beta(Y;X,Z) = beta(Y,Z,X)
@ B-freq = 0.019867  C-freq = 0.019867     beta(Z;X,Z) = beta(Z,Z,X)
@ B-freq = 0.039733  C-freq = 0.019867     beta(X;X,Z) = beta(X,Z,X)
@ B-freq = 0.039733  C-freq = 0.019867     beta(Y;X,Z) = beta(Y,Z,X)
@ B-freq = 0.039733  C-freq = 0.019867     beta(Z;X,Z) = beta(Z,Z,X)
@ B-freq = 0.059600  C-freq = 0.019867     beta(X;X,Z) = beta(X,Z,X)
@ B-freq = 0.059600  C-freq = 0.019867     beta(Y;X,Z) = beta(Y,Z,X)
@ B-freq = 0.059600  C-freq = 0.019867     beta(Z;X,Z) = beta(Z,Z,X)
@ B-freq = 0.079467  C-freq = 0.019867     beta(X;X,Z) = beta(X,Z,X)
@ B-freq = 0.079467  C-freq = 0.019867     beta(Y;X,Z) = beta(Y,Z,X)
@ B-freq = 0.079467  C-freq = 0.019867     beta(Z;X,Z) = beta(Z,Z,X)
@ B-freq = 0.000000  C-freq = 0.019867     beta(X;Y,Z) = beta(X,Z,Y)
@ B-freq = 0.000000  C-freq = 0.019867     beta(Y;Y,Z) = beta(Y,Z,Y)
@ B-freq = 0.000000  C-freq = 0.019867     beta(Z;Y,Z) = beta(Z,Z,Y)
@ B-freq = 0.019867  C-freq = 0.019867     beta(X;Y,Z) = beta(X,Z,Y)
@ B-freq = 0.019867  C-freq = 0.019867     beta(Y;Y,Z) = beta(Y,Z,Y)
@ B-freq = 0.019867  C-freq = 0.019867     beta(Z;Y,Z) = beta(Z,Z,Y)
@ B-freq = 0.039733  C-freq = 0.019867     beta(X;Y,Z) = beta(X,Z,Y)
@ B-freq = 0.039733  C-freq = 0.019867     beta(Y;Y,Z) = beta(Y,Z,Y)
@ B-freq = 0.039733  C-freq = 0.019867     beta(Z;Y,Z) = beta(Z,Z,Y)
@ B-freq = 0.059600  C-freq = 0.019867     beta(X;Y,Z) = beta(X,Z,Y)
@ B-freq = 0.059600  C-freq = 0.019867     beta(Y;Y,Z) = beta(Y,Z,Y)
@ B-freq = 0.059600  C-freq = 0.019867     beta(Z;Y,Z) = beta(Z,Z,Y)
@ B-freq = 0.079467  C-freq = 0.019867     beta(X;Y,Z) = beta(X,Z,Y)
@ B-freq = 0.079467  C-freq = 0.019867     beta(Y;Y,Z) = beta(Y,Z,Y)
@ B-freq = 0.079467  C-freq = 0.019867     beta(Z;Y,Z) = beta(Z,Z,Y)
@ B-freq = 0.000000  C-freq = 0.019867     beta(X;Z,Z) = beta(X,Z,Z)
@ B-freq = 0.000000  C-freq = 0.019867     beta(Y;Z,Z) = beta(Y,Z,Z)
@ B-freq = 0.000000  C-freq = 0.019867     beta(Z;Z,Z) = beta(Z,Z,Z)
@ B-freq = 0.019867  C-freq = 0.019867     beta(X;Z,Z) =      0.00000000
@ B-freq = 0.019867  C-freq = 0.019867     beta(Y;Z,Z) =      0.00143237
@ B-freq = 0.019867  C-freq = 0.019867     beta(Z;Z,Z) =      7.84130812
@ B-freq = 0.039733  C-freq = 0.019867     beta(X;Z,Z) =      0.00000000
@ B-freq = 0.039733  C-freq = 0.019867     beta(Y;Z,Z) =      0.00146499
@ B-freq = 0.039733  C-freq = 0.019867     beta(Z;Z,Z) =      7.98989518
@ B-freq = 0.059600  C-freq = 0.019867     beta(X;Z,Z) =      0.00000000
@ B-freq = 0.059600  C-freq = 0.019867     beta(Y;Z,Z) =      0.00151815
@ B-freq = 0.059600  C-freq = 0.019867     beta(Z;Z,Z) =      8.22133646
@ B-freq = 0.079467  C-freq = 0.019867     beta(X;Z,Z) =      0.00000000
@ B-freq = 0.079467  C-freq = 0.019867     beta(Y;Z,Z) =      0.00159446
@ B-freq = 0.079467  C-freq = 0.019867     beta(Z;Z,Z) =      8.54692405
@ B-freq = 0.000000  C-freq = 0.039733     beta(X;X,Z) = beta(X,Z,X)
@ B-freq = 0.000000  C-freq = 0.039733     beta(Y;X,Z) = beta(Y,Z,X)
@ B-freq = 0.000000  C-freq = 0.039733     beta(Z;X,Z) = beta(Z,Z,X)
@ B-freq = 0.019867  C-freq = 0.039733     beta(X;X,Z) = beta(X,Z,X)
@ B-freq = 0.019867  C-freq = 0.039733     beta(Y;X,Z) = beta(Y,Z,X)
@ B-freq = 0.019867  C-freq = 0.039733     beta(Z;X,Z) = beta(Z,Z,X)
@ B-freq = 0.039733  C-freq = 0.039733     beta(X;X,Z) = beta(X,Z,X)
@ B-freq = 0.039733  C-freq = 0.039733     beta(Y;X,Z) = beta(Y,Z,X)
@ B-freq = 0.039733  C-freq = 0.039733     beta(Z;X,Z) = beta(Z,Z,X)
@ B-freq = 0.059600  C-freq = 0.039733     beta(X;X,Z) = beta(X,Z,X)
@ B-freq = 0.059600  C-freq = 0.039733     beta(Y;X,Z) = beta(Y,Z,X)
@ B-freq = 0.059600  C-freq = 0.039733     beta(Z;X,Z) = beta(Z,Z,X)
@ B-freq = 0.079467  C-freq = 0.039733     beta(X;X,Z) = beta(X,Z,X)
@ B-freq = 0.079467  C-freq = 0.039733     beta(Y;X,Z) = beta(Y,Z,X)
@ B-freq = 0.079467  C-freq = 0.039733     beta(Z;X,Z) = beta(Z,Z,X)
@ B-freq = 0.000000  C-freq = 0.039733     beta(X;Y,Z) = beta(X,Z,Y)
@ B-freq = 0.000000  C-freq = 0.039733     beta(Y;Y,Z) = beta(Y,Z,Y)
@ B-freq = 0.000000  C-freq = 0.039733     beta(Z;Y,Z) = beta(Z,Z,Y)
@ B-freq = 0.019867  C-freq = 0.039733     beta(X;Y,Z) = beta(X,Z,Y)
@ B-freq = 0.019867  C-freq = 0.039733     beta(Y;Y,Z) = beta(Y,Z,Y)
@ B-freq = 0.019867  C-freq = 0.039733     beta(Z;Y,Z) = beta(Z,Z,Y)
@ B-freq = 0.039733  C-freq = 0.039733     beta(X;Y,Z) = beta(X,Z,Y)
@ B-freq = 0.039733  C-freq = 0.039733     beta(Y;Y,Z) = beta(Y,Z,Y)
@ B-freq = 0.039733  C-freq = 0.039733     beta(Z;Y,Z) = beta(Z,Z,Y)
@ B-freq = 0.059600  C-freq = 0.039733     beta(X;Y,Z) = beta(X,Z,Y)
@ B-freq = 0.059600  C-freq = 0.039733     beta(Y;Y,Z) = beta(Y,Z,Y)
@ B-freq = 0.059600  C-freq = 0.039733     beta(Z;Y,Z) = beta(Z,Z,Y)
@ B-freq = 0.079467  C-freq = 0.039733     beta(X;Y,Z) = beta(X,Z,Y)
@ B-freq = 0.079467  C-freq = 0.039733     beta(Y;Y,Z) = beta(Y,Z,Y)
@ B-freq = 0.079467  C-freq = 0.039733     beta(Z;Y,Z) = beta(Z,Z,Y)
@ B-freq = 0.000000  C-freq = 0.039733     beta(X;Z,Z) = beta(X,Z,Z)
@ B-freq = 0.000000  C-freq = 0.039733     beta(Y;Z,Z) = beta(Y,Z,Z)
@ B-freq = 0.000000  C-freq = 0.039733     beta(Z;Z,Z) = beta(Z,Z,Z)
@ B-freq = 0.019867  C-freq = 0.039733     beta(X;Z,Z) = beta(X,Z,Z)
@ B-freq = 0.019867  C-freq = 0.039733     beta(Y;Z,Z) = beta(Y,Z,Z)
@ B-freq = 0.019867  C-freq = 0.039733     beta(Z;Z,Z) = beta(Z,Z,Z)
@ B-freq = 0.039733  C-freq = 0.039733     beta(X;Z,Z) =      0.00000000
@ B-freq = 0.039733  C-freq = 0.039733     beta(Y;Z,Z) =      0.00150347
@ B-freq = 0.039733  C-freq = 0.039733     beta(Z;Z,Z) =      8.18204375
@ B-freq = 0.059600  C-freq = 0.039733     beta(X;Z,Z) =      0.00000000
@ B-freq = 0.059600  C-freq = 0.039733     beta(Y;Z,Z) =      0.00156372
@ B-freq = 0.059600  C-freq = 0.039733     beta(Z;Z,Z) =      8.46370383
@ B-freq = 0.079467  C-freq = 0.039733     beta(X;Z,Z) =      0.00000000
@ B-freq = 0.079467  C-freq = 0.039733     beta(Y;Z,Z) =      0.00164879
@ B-freq = 0.079467  C-freq = 0.039733     beta(Z;Z,Z) =      8.84918300
@ B-freq = 0.000000  C-freq = 0.059600     beta(X;X,Z) = beta(X,Z,X)
@ B-freq = 0.000000  C-freq = 0.059600     beta(Y;X,Z) = beta(Y,Z,X)
@ B-freq = 0.000000  C-freq = 0.059600     beta(Z;X,Z) = beta(Z,Z,X)
@ B-freq = 0.019867  C-freq = 0.059600     beta(X;X,Z) = beta(X,Z,X)
@ B-freq = 0.019867  C-freq = 0.059600     beta(Y;X,Z) = beta(Y,Z,X)
@ B-freq = 0.019867  C-freq = 0.059600     beta(Z;X,Z) = beta(Z,Z,X)
@ B-freq = 0.039733  C-freq = 0.059600     beta(X;X,Z) = beta(X,Z,X)
@ B-freq = 0.039733  C-freq = 0.059600     beta(Y;X,Z) = beta(Y,Z,X)
@ B-freq = 0.039733  C-freq = 0.059600     beta(Z;X,Z) = beta(Z,Z,X)
@ B-freq = 0.059600  C-freq = 0.059600     beta(X;X,Z) = beta(X,Z,X)
@ B-freq = 0.059600  C-freq = 0.059600     beta(Y;X,Z) = beta(Y,Z,X)
@ B-freq = 0.059600  C-freq = 0.059600     beta(Z;X,Z) = beta(Z,Z,X)
@ B-freq = 0.079467  C-freq = 0.059600     beta(X;X,Z) = beta(X,Z,X)
@ B-freq = 0.079467  C-freq = 0.059600     beta(Y;X,Z) = beta(Y,Z,X)
@ B-freq = 0.079467  C-freq = 0.059600     beta(Z;X,Z) = beta(Z,Z,X)
@ B-freq = 0.000000  C-freq = 0.059600     beta(X;Y,Z) = beta(X,Z,Y)
@ B-freq = 0.000000  C-freq = 0.059600     beta(Y;Y,Z) = beta(Y,Z,Y)
@ B-freq = 0.000000  C-freq = 0.059600     beta(Z;Y,Z) = beta(Z,Z,Y)
@ B-freq = 0.019867  C-freq = 0.059600     beta(X;Y,Z) = beta(X,Z,Y)
@ B-freq = 0.019867  C-freq = 0.059600     beta(Y;Y,Z) = beta(Y,Z,Y)
@ B-freq = 0.019867  C-freq = 0.059600     beta(Z;Y,Z) = beta(Z,Z,Y)
@ B-freq = 0.039733  C-freq = 0.059600     beta(X;Y,Z) = beta(X,Z,Y)
@ B-freq = 0.039733  C-freq = 0.059600     beta(Y;Y,Z) = beta(Y,Z,Y)
@ B-freq = 0.039733  C-freq = 0.059600     beta(Z;Y,Z) = beta(Z,Z,Y)
@ B-freq = 0.059600  C-freq = 0.059600     beta(X;Y,Z) = beta(X,Z,Y)
@ B-freq = 0.059600  C-freq = 0.059600     beta(Y;Y,Z) = beta(Y,Z,Y)
@ B-freq = 0.059600  C-freq = 0.059600     beta(Z;Y,Z) = beta(Z,Z,Y)
@ B-freq = 0.079467  C-freq = 0.059600     beta(X;Y,Z) = beta(X,Z,Y)
@ B-freq = 0.079467  C-freq = 0.059600     beta(Y;Y,Z) = beta(Y,Z,Y)
@ B-freq = 0.079467  C-freq = 0.059600     beta(Z;Y,Z) = beta(Z,Z,Y)
@ B-freq = 0.000000  C-freq = 0.059600     beta(X;Z,Z) = beta(X,Z,Z)
@ B-freq = 0.000000  C-freq = 0.059600     beta(Y;Z,Z) = beta(Y,Z,Z)
@ B-freq = 0.000000  C-freq = 0.059600     beta(Z;Z,Z) = beta(Z,Z,Z)
@ B-freq = 0.019867  C-freq = 0.059600     beta(X;Z,Z) = beta(X,Z,Z)
@ B-freq = 0.019867  C-freq = 0.059600     beta(Y;Z,Z) = beta(Y,Z,Z)
@ B-freq = 0.019867  C-freq = 0.059600     beta(Z;Z,Z) = beta(Z,Z,Z)
@ B-freq = 0.039733  C-freq = 0.059600     beta(X;Z,Z) = beta(X,Z,Z)
@ B-freq = 0.039733  C-freq = 0.059600     beta(Y;Z,Z) = beta(Y,Z,Z)
@ B-freq = 0.039733  C-freq = 0.059600     beta(Z;Z,Z) = beta(Z,Z,Z)
@ B-freq = 0.059600  C-freq = 0.059600     beta(X;Z,Z) =      0.00000000
@ B-freq = 0.059600  C-freq = 0.059600     beta(Y;Z,Z) =      0.00163286
@ B-freq = 0.059600  C-freq = 0.059600     beta(Z;Z,Z) =      8.80509739
@ B-freq = 0.079467  C-freq = 0.059600     beta(X;Z,Z) =      0.00000000
@ B-freq = 0.079467  C-freq = 0.059600     beta(Y;Z,Z) =      0.00172932
@ B-freq = 0.079467  C-freq = 0.059600     beta(Z;Z,Z) =      9.26379688
@ B-freq = 0.000000  C-freq = 0.079467     beta(X;X,Z) = beta(X,Z,X)
@ B-freq = 0.000000  C-freq = 0.079467     beta(Y;X,Z) = beta(Y,Z,X)
@ B-freq = 0.000000  C-freq = 0.079467     beta(Z;X,Z) = beta(Z,Z,X)
@ B-freq = 0.019867  C-freq = 0.079467     beta(X;X,Z) = beta(X,Z,X)
@ B-freq = 0.019867  C-freq = 0.079467     beta(Y;X,Z) = beta(Y,Z,X)
@ B-freq = 0.019867  C-freq = 0.079467     beta(Z;X,Z) = beta(Z,Z,X)
@ B-freq = 0.039733  C-freq = 0.079467     beta(X;X,Z) = beta(X,Z,X)
@ B-freq = 0.039733  C-freq = 0.079467     beta(Y;X,Z) = beta(Y,Z,X)
@ B-freq = 0.039733  C-freq = 0.079467     beta(Z;X,Z) = beta(Z,Z,X)
@ B-freq = 0.059600  C-freq = 0.079467     beta(X;X,Z) = beta(X,Z,X)
@ B-freq = 0.059600  C-freq = 0.079467     beta(Y;X,Z) = beta(Y,Z,X)
@ B-freq = 0.059600  C-freq = 0.079467     beta(Z;X,Z) = beta(Z,Z,X)
@ B-freq = 0.079467  C-freq = 0.079467     beta(X;X,Z) = beta(X,Z,X)
@ B-freq = 0.079467  C-freq = 0.079467     beta(Y;X,Z) = beta(Y,Z,X)
@ B-freq = 0.079467  C-freq = 0.079467     beta(Z;X,Z) = beta(Z,Z,X)
@ B-freq = 0.000000  C-freq = 0.079467     beta(X;Y,Z) = beta(X,Z,Y)
@ B-freq = 0.000000  C-freq = 0.079467     beta(Y;Y,Z) = beta(Y,Z,Y)
@ B-freq = 0.000000  C-freq = 0.079467     beta(Z;Y,Z) = beta(Z,Z,Y)
@ B-freq = 0.019867  C-freq = 0.079467     beta(X;Y,Z) = beta(X,Z,Y)
@ B-freq = 0.019867  C-freq = 0.079467     beta(Y;Y,Z) = beta(Y,Z,Y)
@ B-freq = 0.019867  C-freq = 0.079467     beta(Z;Y,Z) = beta(Z,Z,Y)
@ B-freq = 0.039733  C-freq = 0.079467     beta(X;Y,Z) = beta(X,Z,Y)
@ B-freq = 0.039733  C-freq = 0.079467     beta(Y;Y,Z) = beta(Y,Z,Y)
@ B-freq = 0.039733  C-freq = 0.079467     beta(Z;Y,Z) = beta(Z,Z,Y)
@ B-freq = 0.059600  C-freq = 0.079467     beta(X;Y,Z) = beta(X,Z,Y)
@ B-freq = 0.059600  C-freq = 0.079467     beta(Y;Y,Z) = beta(Y,Z,Y)
@ B-freq = 0.059600  C-freq = 0.079467     beta(Z;Y,Z) = beta(Z,Z,Y)
@ B-freq = 0.079467  C-freq = 0.079467     beta(X;Y,Z) = beta(X,Z,Y)
@ B-freq = 0.079467  C-freq = 0.079467     beta(Y;Y,Z) = beta(Y,Z,Y)
@ B-freq = 0.079467  C-freq = 0.079467     beta(Z;Y,Z) = beta(Z,Z,Y)
@ B-freq = 0.000000  C-freq = 0.079467     beta(X;Z,Z) = beta(X,Z,Z)
@ B-freq = 0.000000  C-freq = 0.079467     beta(Y;Z,Z) = beta(Y,Z,Z)
@ B-freq = 0.000000  C-freq = 0.079467     beta(Z;Z,Z) = beta(Z,Z,Z)
@ B-freq = 0.019867  C-freq = 0.079467     beta(X;Z,Z) = beta(X,Z,Z)
@ B-freq = 0.019867  C-freq = 0.079467     beta(Y;Z,Z) = beta(Y,Z,Z)
@ B-freq = 0.019867  C-freq = 0.079467     beta(Z;Z,Z) = beta(Z,Z,Z)
@ B-freq = 0.039733  C-freq = 0.079467     beta(X;Z,Z) = beta(X,Z,Z)
@ B-freq = 0.039733  C-freq = 0.079467     beta(Y;Z,Z) = beta(Y,Z,Z)
@ B-freq = 0.039733  C-freq = 0.079467     beta(Z;Z,Z) = beta(Z,Z,Z)
@ B-freq = 0.059600  C-freq = 0.079467     beta(X;Z,Z) = beta(X,Z,Z)
@ B-freq = 0.059600  C-freq = 0.079467     beta(Y;Z,Z) = beta(Y,Z,Z)
@ B-freq = 0.059600  C-freq = 0.079467     beta(Z;Z,Z) = beta(Z,Z,Z)
@ B-freq = 0.079467  C-freq = 0.079467     beta(X;Z,Z) =      0.00000000
@ B-freq = 0.079467  C-freq = 0.079467     beta(Y;Z,Z) =      0.00184070
@ B-freq = 0.079467  C-freq = 0.079467     beta(Z;Z,Z) =      9.81448591

  Total CPU  time used in RESPONSE: 22 minutes 58 seconds
  Total wall time used in RESPONSE: 23 minutes  1 second 


                   .-------------------------------------------.
                   | End of Dynamic Property Section (RESPONS) |
                   `-------------------------------------------'

  Total CPU  time used in DALTON: 24 minutes 18 seconds
  Total wall time used in DALTON: 24 minutes 21 seconds

 
     Date and time (Linux)  : Mon Jul 22 11:46:23 2024
     Host name              : sn-mem                                  
