

     ************************************************************************
     *************** Dalton - An Electronic Structure Program ***************
     ************************************************************************

    This is output from DALTON release Dalton2020.0 (2020)
         ( Web site: http://daltonprogram.org )

   ----------------------------------------------------------------------------

    NOTE:
     
    Dalton is an experimental code for the evaluation of molecular
    properties using (MC)SCF, DFT, CI, and CC wave functions.
    The authors accept no responsibility for the performance of
    the code or for the correctness of the results.
     
    The code (in whole or part) is provided under a licence and
    is not to be reproduced for further distribution without
    the written permission of the authors or their representatives.
     
    See the home page "http://daltonprogram.org" for further information.
     
    If results obtained with this code are published,
    the appropriate citations would be both of:
     
       K. Aidas, C. Angeli, K. L. Bak, V. Bakken, R. Bast,
       L. Boman, O. Christiansen, R. Cimiraglia, S. Coriani,
       P. Dahle, E. K. Dalskov, U. Ekstroem,
       T. Enevoldsen, J. J. Eriksen, P. Ettenhuber, B. Fernandez,
       L. Ferrighi, H. Fliegl, L. Frediani, K. Hald, A. Halkier,
       C. Haettig, H. Heiberg, T. Helgaker, A. C. Hennum,
       H. Hettema, E. Hjertenaes, S. Hoest, I.-M. Hoeyvik,
       M. F. Iozzi, B. Jansik, H. J. Aa. Jensen, D. Jonsson,
       P. Joergensen, J. Kauczor, S. Kirpekar,
       T. Kjaergaard, W. Klopper, S. Knecht, R. Kobayashi, H. Koch,
       J. Kongsted, A. Krapp, K. Kristensen, A. Ligabue,
       O. B. Lutnaes, J. I. Melo, K. V. Mikkelsen, R. H. Myhre,
       C. Neiss, C. B. Nielsen, P. Norman, J. Olsen,
       J. M. H. Olsen, A. Osted, M. J. Packer, F. Pawlowski,
       T. B. Pedersen, P. F. Provasi, S. Reine, Z. Rinkevicius,
       T. A. Ruden, K. Ruud, V. Rybkin, P. Salek, C. C. M. Samson,
       A. Sanchez de Meras, T. Saue, S. P. A. Sauer,
       B. Schimmelpfennig, K. Sneskov, A. H. Steindal,
       K. O. Sylvester-Hvid, P. R. Taylor, A. M. Teale,
       E. I. Tellgren, D. P. Tew, A. J. Thorvaldsen, L. Thoegersen,
       O. Vahtras, M. A. Watson, D. J. D. Wilson, M. Ziolkowski
       and H. Agren,
       "The Dalton quantum chemistry program system",
       WIREs Comput. Mol. Sci. 2014, 4:269–284 (doi: 10.1002/wcms.1172)
     
    and
     
       Dalton, a molecular electronic structure program,
       Release Dalton2020.0 (2020), see http://daltonprogram.org
   ----------------------------------------------------------------------------

    Authors in alphabetical order (Major contribution(s) in parenthesis):

  Kestutis Aidas,           Vilnius University,           Lithuania   (QM/MM)
  Celestino Angeli,         University of Ferrara,        Italy       (NEVPT2)
  Keld L. Bak,              UNI-C,                        Denmark     (AOSOPPA, non-adiabatic coupling, magnetic properties)
  Vebjoern Bakken,          University of Oslo,           Norway      (DALTON; geometry optimizer, symmetry detection)
  Radovan Bast,             UiT The Arctic U. of Norway,  Norway      (DALTON installation and execution frameworks)
  Pablo Baudin,             University of Valencia,       Spain       (Cholesky excitation energies)
  Linus Boman,              NTNU,                         Norway      (Cholesky decomposition and subsystems)
  Bruno N. Cabral Tenorio,  Technical Univ. of Denmark,   Denmark     (Lanczos-based CC methods)
  Ove Christiansen,         Aarhus University,            Denmark     (CC module)
  Renzo Cimiraglia,         University of Ferrara,        Italy       (NEVPT2)
  Sonia Coriani,            Technical Univ. of Denmark,   Denmark     (CC and RESPONS modules)
  Janusz Cukras,            University of Warsaw,         Poland      (MChD in RESPONS)
  Paal Dahle,               University of Oslo,           Norway      (Parallelization)
  Erik K. Dalskov,          UNI-C,                        Denmark     (SOPPA)
  Thomas Enevoldsen,        Univ. of Southern Denmark,    Denmark     (SOPPA)
  Janus J. Eriksen,         Aarhus University,            Denmark     (Polarizable embedding, TDA)
  Rasmus Faber,             Technical Univ. of Denmark,   Denmark     (Vib.avg. NMR w. SOPPA, parallel AO-SOPPA, CVS-CC and EOMCC)
  Tobias Fahleson,          KTH Stockholm,                Sweden      (Damped cubic response)
  Berta Fernandez,          U. of Santiago de Compostela, Spain       (Doublet spin, ESR in RESPONS)
  Lara Ferrighi,            Aarhus University,            Denmark     (PCM Cubic response)
  Heike Fliegl,             University of Oslo,           Norway      (CCSD(R12))
  Luca Frediani,            UiT The Arctic U. of Norway,  Norway      (PCM)
  Emmanuel Fromager,        Univ. Strasbourg,             France      (MC-srDFT)
  Bin Gao,                  UiT The Arctic U. of Norway,  Norway      (Gen1Int library)
  Andre S. P. Gomes,        CNRS/Universite de Lille,     France      (Frozen density embedding)
  Christof Haettig,         Ruhr-University Bochum,       Germany     (CC module)
  Kasper Hald,              Aarhus University,            Denmark     (CC module)
  Asger Halkier,            Aarhus University,            Denmark     (CC module)
  Frederik Beyer Hansen,    University of Copenhagen,     Denmark     (Parallel AO-SOPPA)
  Erik D. Hedegaard,        Univ. of Southern Denmark,    Denmark     (Polarizable embedding, QM/MM, and MC-srDFT)
  Hanne Heiberg,            University of Oslo,           Norway      (Geometry analysis, selected one-electron integrals)
  Trygve Helgaker,          University of Oslo,           Norway      (DALTON; ABACUS, ERI, DFT modules, London, and much more)
  Alf Christian Hennum,     University of Oslo,           Norway      (Parity violation)
  Hinne Hettema,            University of Auckland,       New Zealand (Quadratic response in RESPONS; SIRIUS supersymmetry)
  Eirik Hjertenaes,         NTNU,                         Norway      (Cholesky decomposition)
  Pi A. B. Haase,           University of Copenhagen,     Denmark     (Triplet AO-SOPPA)
  Maria Francesca Iozzi,    University of Oslo,           Norway      (RPA)
  Christoph Jacob           TU Braunschweig               Germany     (Frozen density embedding)
  Brano Jansik              Technical Univ. of Ostrava    Czech Rep.  (DFT cubic response)
  Hans Joergen Aa. Jensen,  Univ. of Southern Denmark,    Denmark     (DALTON; SIRIUS, RESPONS, ABACUS, MC-srDFT, and much more)
  Dan Jonsson,              UiT The Arctic U. of Norway,  Norway      (Cubic response in RESPONS module)
  Poul Joergensen,          Aarhus University,            Denmark     (RESPONS, ABACUS, and CC modules)
  Maciej Kaminski,          University of Warsaw,         Poland      (CPPh in RESPONS)
  Joanna Kauczor,           Linkoeping University,        Sweden      (Complex polarization propagator (CPP) module)
  Sheela Kirpekar,          Univ. of Southern Denmark,    Denmark     (Mass-velocity & Darwin integrals)
  Erik Kjellgren,           Univ. of Southern Denmark,    Denmark     (MC-srDFT)
  Wim Klopper,              KIT Karlsruhe,                Germany     (R12 code in CC, SIRIUS, and ABACUS modules)
  Stefan Knecht,            ETH Zurich,                   Switzerland (Parallel CI and MCSCF, MC-srDFT)
  Rika Kobayashi,           Australian National Univ.,    Australia   (DIIS in CC, London in MCSCF)
  Henrik Koch,              NTNU,                         Norway      (CC module, Cholesky decomposition)
  Jacob Kongsted,           Univ. of Southern Denmark,    Denmark     (Polarizable embedding, polarizable density embedding, QM/MM)
  Andrea Ligabue,           University of Modena,         Italy       (CTOCD, AOSOPPA)
  Nanna H. List             Univ. of Southern Denmark,    Denmark     (Polarizable embedding)
  Ola B. Lutnaes,           University of Oslo,           Norway      (DFT Hessian)
  Juan I. Melo,             University of Buenos Aires,   Argentina   (LRESC, Relativistic Effects on NMR Shieldings)
  Kurt V. Mikkelsen,        University of Copenhagen,     Denmark     (MC-SCRF and QM/MM)
  Rolf H. Myhre,            NTNU,                         Norway      (Subsystems and CC3)
  Christian Neiss,          Univ. Erlangen-Nuernberg,     Germany     (CCSD(R12))
  Christian B. Nielsen,     University of Copenhagen,     Denmark     (QM/MM)
  Patrick Norman,           KTH Stockholm,                Sweden      (Cubic response and complex frequency response in RESPONS)
  Jeppe Olsen,              Aarhus University,            Denmark     (SIRIUS CI/density modules)
  Jogvan Magnus H. Olsen,   Aarhus University,            Denmark     (Polarizable embedding and polarizable density embedding)
  Anders Osted,             Copenhagen University,        Denmark     (QM/MM)
  Martin J. Packer,         University of Sheffield,      UK          (SOPPA)
  Filip Pawlowski,          Kazimierz Wielki University,  Poland      (CC3)
  Morten N. Pedersen,       Univ. of Southern Denmark,    Denmark     (Polarizable embedding)
  Thomas B. Pedersen,       University of Oslo,           Norway      (Cholesky decomposition)
  Patricio F. Provasi,      University of Northeastern,   Argentina   (Analysis of coupling constants in localized orbitals)
  Peter Reinholdt,          Univ. of Southern Denmark,    Denmark     (Polarizable embedding and polarizable density embedding)
  Zilvinas Rinkevicius,     KTH Stockholm,                Sweden      (open-shell DFT, ESR)
  Elias Rudberg,            KTH Stockholm,                Sweden      (DFT grid and basis info)
  Torgeir A. Ruden,         University of Oslo,           Norway      (Numerical derivatives in ABACUS)
  Kenneth Ruud,             UiT The Arctic U. of Norway,  Norway      (DALTON; ABACUS magnetic properties and much more)
  Pawel Salek,              KTH Stockholm,                Sweden      (DALTON; DFT code)
  Claire C. M. Samson       University of Karlsruhe       Germany     (Boys localization, r12 integrals in ERI)
  Alfredo Sanchez de Meras, University of Valencia,       Spain       (CC module, Cholesky decomposition)
  Trond Saue,               Paul Sabatier University,     France      (direct Fock matrix construction)
  Stephan P. A. Sauer,      University of Copenhagen,     Denmark     (SOPPA(CCSD), SOPPA prop., AOSOPPA, vibrational g-factors)
  Bernd Schimmelpfennig,    Forschungszentrum Karlsruhe,  Germany     (AMFI module)
  Anna K. Schnack-Petersen, University of Copenhagen,     Denmark     (RPA(D) and HRPA(D) properties in AOSOPPA)
  Kristian Sneskov,         Aarhus University,            Denmark     (Polarizable embedding, QM/MM)
  Arnfinn H. Steindal,      UiT The Arctic U. of Norway,  Norway      (parallel QM/MM, polarizable embedding)
  Casper Steinmann,         Aalborg University,           Denmark     (QFIT, polarizable embedding)
  K. O. Sylvester-Hvid,     University of Copenhagen,     Denmark     (MC-SCRF)
  Peter R. Taylor,          VLSCI/Univ. of Melbourne,     Australia   (Symmetry handling ABACUS, integral transformation)
  Andrew M. Teale,          University of Nottingham,     England     (DFT-AC, DFT-D)
  David P. Tew,             University of Bristol,        England     (CCSD(R12))
  Julien Toulouse,          Sorbonne Univ.,               France      (MC-srDFT)
  Olav Vahtras,             KTH Stockholm,                Sweden      (Triplet response, spin-orbit, ESR, TDDFT, open-shell DFT)
  Lucas Visscher,           Vrije Universiteit Amsterdam, Netherlands (Frozen density embedding)
  David J. Wilson,          La Trobe University,          Australia   (DFT Hessian and DFT magnetizabilities)
  Hans Agren,               KTH Stockholm,                Sweden      (SIRIUS module, RESPONS, MC-SCRF solvation)
 --------------------------------------------------------------------------------

     Date and time (Linux)  : Wed Sep 13 18:55:08 2023
     Host name              : sn-mem                                  

 * Work memory size             :    64000000 =  488.28 megabytes.

 * Directories for basis set searches:
   1) /gpfs/projects/rjh/adrian/august_no_symmetry/dalton/hf/NOCl/dipole
   2) /gpfs/projects/rjh/adrian/dalton/build/basis


Compilation information
-----------------------

 Who compiled             | ahurtado
 Host                     | sn-mem
 System                   | Linux-3.10.0-1160.24.1.el7.x86_64
 CMake generator          | Unix Makefiles
 Processor                | x86_64
 64-bit integers          | OFF
 MPI                      | ON
 Fortran compiler         | /gpfs/software/intel/oneAPI/2021_4/mpi/2021.4.0/bi
                          | n/mpif90
 Fortran compiler version | GNU Fortran (GCC) 11.2.0
 C compiler               | /gpfs/software/intel/oneAPI/2021_4/mpi/2021.4.0/bi
                          | n/mpicc
 C compiler version       | gcc (GCC) 11.2.0
 C++ compiler             | /gpfs/software/intel/oneAPI/2021_4/mpi/2021.4.0/bi
                          | n/mpicxx
 C++ compiler version     | unknown
 BLAS                     | /gpfs/software/intel/oneAPI/2021_4/mkl/2021.4.0/li
                          | b/intel64/libmkl_gf_lp64.so;/gpfs/software/intel/o
                          | neAPI/2021_4/mkl/2021.4.0/lib/intel64/libmkl_seque
                          | ntial.so;/gpfs/software/intel/oneAPI/2021_4/mkl/20
                          | 21.4.0/lib/intel64/libmkl_core.so;/usr/lib64/libpt
                          | hread.so;/usr/lib64/libm.so
 LAPACK                   | /gpfs/software/intel/oneAPI/2021_4/mkl/2021.4.0/li
                          | b/intel64/libmkl_lapack95_lp64.a;/gpfs/software/in
                          | tel/oneAPI/2021_4/mkl/2021.4.0/lib/intel64/libmkl_
                          | gf_lp64.so
 Static linking           | OFF
 Last Git revision        | 66052b3af5ea7225e31178bf9a8b031913c72190
 Git branch               | (HEAD detached at Dalton2020.0)
 Configuration time       | 2023-01-11 13:33:37.731835

 * MPI parallel run using 5 processes.


   Content of the .dal input file
 ----------------------------------

**DALTON INPUT
.RUN RESPONSE
.DIRECT
**WAVE FUNCTIONS
.HF
**PROPERTIES
**RESPONSE
*QUADRA
.DIPLEN
.FREQUENCIES
5
0.0 0.0063445625 0.012689125 0.0190336875 0.02537825
**END OF DALTON INPUT


   Content of the .mol file
 ----------------------------

BASIS
aug-cc-pVTZ
blah
blah
Atomtype=3 Angstrom Charge=0 Nosymmmetry
Charge=17 Atoms=1
Cl_a -0.531200001141 -0.929799999232 0.000000000000
Charge=7 Atoms=1
N_a 0.000000000000 0.972399997674 0.000000000000
Charge=8 Atoms=1
O_a 1.128700001162 1.124999999397 0.000000000000


       *******************************************************************
       *********** Output from DALTON general input processing ***********
       *******************************************************************

 --------------------------------------------------------------------------------
   Overall default print level:    0
   Print level for DALTON.STAT:    1

    Parallel calculation using MPI
    AO-direct calculation (in sections where implemented)
    HERMIT 1- and 2-electron integral sections will be executed
    "Old" integral transformation used (limited to max 255 basis functions)
    Wave function sections will be executed (SIRIUS module)
    Dynamic molecular response properties section will be executed (RESPONSE module)
 --------------------------------------------------------------------------------


   ****************************************************************************
   *************** Output of molecule and basis set information ***************
   ****************************************************************************


    The two title cards from your ".mol" input:
    ------------------------------------------------------------------------
 1: blah                                                                    
 2: blah                                                                    
    ------------------------------------------------------------------------

  Coordinates are entered in Angstrom and converted to atomic units.
          - Conversion factor : 1 bohr = 0.52917721 A

  Atomic type no.    1
  --------------------
  Nuclear charge:  17.00000
  Number of symmetry independent centers:    1
  Number of basis sets to read;    2
  Basis set file used for this atomic type with Z =  17 :
     "/gpfs/projects/rjh/adrian/dalton/build/basis/aug-cc-pVTZ"

  Atomic type no.    2
  --------------------
  Nuclear charge:   7.00000
  Number of symmetry independent centers:    1
  Number of basis sets to read;    2
  Basis set file used for this atomic type with Z =   7 :
     "/gpfs/projects/rjh/adrian/dalton/build/basis/aug-cc-pVTZ"

  Atomic type no.    3
  --------------------
  Nuclear charge:   8.00000
  Number of symmetry independent centers:    1
  Number of basis sets to read;    2
  Basis set file used for this atomic type with Z =   8 :
     "/gpfs/projects/rjh/adrian/dalton/build/basis/aug-cc-pVTZ"


                         SYMGRP: Point group information
                         -------------------------------

@    Point group: C1 


                                 Isotopic Masses
                                 ---------------

                           Cl_a       34.968853
                           N_a        14.003074
                           O_a        15.994915

                       Total mass:    64.966842 amu
                       Natural abundance:  75.308 %

 Center-of-mass coordinates (a.u.):   -0.015184   -0.026271    0.000000
 Center-of-mass coordinates (Angs):   -0.008035   -0.013902    0.000000


  Atoms and basis sets
  --------------------

  Number of atom types :    3
  Total number of atoms:    3

  Basis set used is "aug-cc-pVTZ" from the basis set library.

  label    atoms   charge   prim   cont     basis
  ----------------------------------------------------------------------
  Cl          1   17.0000    75    50      [16s10p3d2f|6s5p3d2f]                              
  N_          1    7.0000    58    46      [11s6p3d2f|5s4p3d2f]                               
  O_          1    8.0000    58    46      [11s6p3d2f|5s4p3d2f]                               
  ----------------------------------------------------------------------
  total:      3   32.0000   191   142
  ----------------------------------------------------------------------
  Spherical harmonic basis used.

  Threshold for neglecting AO integrals:  1.00D-12


  Cartesian Coordinates (a.u.)
  ----------------------------

  Total number of coordinates:    9
  Cl_a    :     1  x  -1.0038225198    2  y  -1.7570673496    3  z   0.0000000000
  N_a     :     4  x   0.0000000000    5  y   1.8375696795    6  z   0.0000000000
  O_a     :     7  x   2.1329338795    8  y   2.1259418895    9  z   0.0000000000


   Interatomic separations (in Angstrom):
   --------------------------------------

            Cl_a        N_a         O_a   
            ------      ------      ------
 Cl_a  :    0.000000
 N_a   :    1.974978    0.000000
 O_a   :    2.641490    1.138969    0.000000


  Max    interatomic separation is    2.6415 Angstrom (    4.9917 Bohr)
  between atoms    3 and    1, "O_a   " and "Cl_a  ".

  Min YX interatomic separation is    1.1390 Angstrom (    2.1523 Bohr)


  Bond distances (Angstrom):
  --------------------------

                  atom 1     atom 2       distance
                  ------     ------       --------
  bond distance:  N_a        Cl_a         1.974978
  bond distance:  O_a        N_a          1.138969


  Bond angles (degrees):
  ----------------------

                  atom 1     atom 2     atom 3         angle
                  ------     ------     ------         -----
  bond angle:     Cl_a       N_a        O_a          113.302




 Principal moments of inertia (u*A**2) and principal axes
 --------------------------------------------------------

   IA       5.840433          0.544616    0.838686    0.000000
   IB      88.102929          0.838686   -0.544616    0.000000
   IC      93.943362          0.000000    0.000000    1.000000


 Rotational constants
 --------------------

@    The molecule is planar.

               A                   B                   C

          86531.0810           5736.2339           5379.6138 MHz
            2.886366            0.191340            0.179445 cm-1


@  Nuclear repulsion energy :   85.148419784453 Hartree


                     .---------------------------------------.
                     | Starting in Integral Section (HERMIT) |
                     `---------------------------------------'



 ***************************************************************************************
 ****************** Output from **INTEGRALS input processing (HERMIT) ******************
 ***************************************************************************************


 - Using defaults, no **INTEGRALS input found

 Default print level:        1

 Calculation of one-electron Hamiltonian integrals.

 Center of mass  (bohr):     -0.015183530523     -0.026271029737      0.000000000000
 Operator center (bohr):      0.000000000000      0.000000000000      0.000000000000
 Gauge origin    (bohr):      0.000000000000      0.000000000000      0.000000000000
 Dipole origin   (bohr):      0.000000000000      0.000000000000      0.000000000000


     ************************************************************************
     ************************** Output from HERINT **************************
     ************************************************************************



                      Nuclear contribution to dipole moments
                      --------------------------------------

                 au               Debye          C m (/(10**-30)

      x     -0.00151180        -0.00384261        -0.01281757
      y      0.00037793         0.00096060         0.00320422
      z      0.00000000         0.00000000         0.00000000


  Time used in GABGEN     is       0.13 seconds
  Total CPU  time used in HERMIT:   0.29 seconds
  Total wall time used in HERMIT:   0.30 seconds


                        .----------------------------------.
                        | End of Integral Section (HERMIT) |
                        `----------------------------------'



                   .--------------------------------------------.
                   | Starting in Wave Function Section (SIRIUS) |
                   `--------------------------------------------'


 *** Output from Huckel module :

     Using EWMO model:          T
     Using EHT  model:          F
     Number of Huckel orbitals each symmetry:   24

 EWMO - Energy Weighted Maximum Overlap - is a Huckel type method,
        which normally is better than Extended Huckel Theory.
 Reference: Linderberg and Ohrn, Propagators in Quantum Chemistry (Wiley, 1973)

 Huckel EWMO eigenvalues for symmetry :  1
         -104.883930     -20.685569     -15.673202     -10.608489      -8.072407
           -8.072214      -8.072213      -1.708026      -1.175229      -0.898477
           -0.756044      -0.739435      -0.598849      -0.506247      -0.484719
           -0.442076      -0.370251      -0.309233      -0.187242      -0.055540
           -0.055527      -0.054317      -0.054072      -0.050572

 **********************************************************************
 *SIRIUS* a direct, restricted step, second order MCSCF program       *
 **********************************************************************

 
     Date and time (Linux)  : Wed Sep 13 18:55:08 2023
     Host name              : sn-mem                                  

 Title lines from ".mol" input file:
     blah                                                                    
     blah                                                                    

 Print level on unit LUPRI =   2 is   0
 Print level on unit LUW4  =   2 is   5

@    Restricted, closed shell Hartree-Fock calculation.

@    Time-dependent Hartree-Fock calculation (random phase approximation).
 Fock matrices are calculated directly and in parallel without use of integrals on disk.

 Initial molecular orbitals are obtained according to
 ".MOSTART EWMO  " input option

     Wave function specification
     ============================
@    Wave function type        --- HF ---
@    Number of closed shell electrons          32
@    Number of electrons in active shells       0
@    Total charge of the molecule               0

@    Spin multiplicity and 2 M_S                1         0
@    Total number of symmetries                 1 (point group: C1 )
@    Reference state symmetry                   1 (irrep name : A  )

     Orbital specifications
     ======================
@    Abelian symmetry species          All |    1
@                                          |  A  
                                       --- |  ---
@    Occupied SCF orbitals              16 |   16
@    Secondary orbitals                126 |  126
@    Total number of orbitals          142 |  142
@    Number of basis functions         142 |  142

     Optimization information
     ========================
@    Number of configurations                 1
@    Number of orbital rotations           2016
     ------------------------------------------
@    Total number of variables             2017

     Maximum number of Fock   iterations      0
     Maximum number of DIIS   iterations     60
     Maximum number of QC-SCF iterations     60
     Threshold for SCF convergence     1.00D-05


 ***********************************************
 ***** DIIS acceleration of SCF iterations *****
 ***********************************************

 C1-DIIS algorithm; max error vectors =    8

 Iter      Total energy        Error norm    Delta(E)  DIIS dim.
 -----------------------------------------------------------------------------
   1  Screening settings (-IFTHRS, JTDIIS, DIFDEN, times)   -8    1    T  1.24D+00  1.30D+00
@  1    -588.365078097        2.71922D+00   -5.88D+02    1
      Virial theorem: -V/T =      2.000509
@    MULPOP   Cl_a   -0.16; N_a     0.50; O_a    -0.34; 
   1  Level shift: doubly occupied orbital energies shifted by -2.00D-01
 -----------------------------------------------------------------------------
   2  Screening settings (-IFTHRS, JTDIIS, DIFDEN, times)   -8    2    T  1.15D+00  1.23D+00
@  2    -588.702798682        1.10628D+00   -3.38D-01    2
      Virial theorem: -V/T =      2.000308
@    MULPOP   Cl_a    0.02; N_a    -0.10; O_a     0.09; 
   2  Level shift: doubly occupied orbital energies shifted by -1.00D-01
 -----------------------------------------------------------------------------
   3  Screening settings (-IFTHRS, JTDIIS, DIFDEN, times)   -8    3    T  1.11D+00  1.23D+00
@  3    -588.759797305        3.74708D-01   -5.70D-02    3
      Virial theorem: -V/T =      2.000265
@    MULPOP   Cl_a   -0.11; N_a     0.30; O_a    -0.19; 
   3  Level shift: doubly occupied orbital energies shifted by -5.00D-02
 -----------------------------------------------------------------------------
   4  Screening settings (-IFTHRS, JTDIIS, DIFDEN, times)   -8    4    T  1.15D+00  1.24D+00
@  4    -588.767941409        1.04904D-01   -8.14D-03    4
      Virial theorem: -V/T =      2.000821
@    MULPOP   Cl_a   -0.12; N_a     0.24; O_a    -0.11; 
   4  Level shift: doubly occupied orbital energies shifted by -2.50D-02
 -----------------------------------------------------------------------------
   5  Screening settings (-IFTHRS, JTDIIS, DIFDEN, times)  -12    5    F  1.18D+00  1.23D+00
@  5    -588.769097958        3.75161D-02   -1.16D-03    5
      Virial theorem: -V/T =      2.000630
@    MULPOP   Cl_a   -0.12; N_a     0.26; O_a    -0.13; 
   5  Level shift: doubly occupied orbital energies shifted by -1.25D-02
 -----------------------------------------------------------------------------
   6  Screening settings (-IFTHRS, JTDIIS, DIFDEN, times)  -12    6    T  1.15D+00  1.16D+00
@  6    -588.769306107        1.64783D-02   -2.08D-04    6
      Virial theorem: -V/T =      2.000626
@    MULPOP   Cl_a   -0.14; N_a     0.26; O_a    -0.13; 
 -----------------------------------------------------------------------------
   7  Screening settings (-IFTHRS, JTDIIS, DIFDEN, times)  -12    7    T  1.24D+00  1.24D+00
@  7    -588.769367176        6.00077D-03   -6.11D-05    7
      Virial theorem: -V/T =      2.000645
@    MULPOP   Cl_a   -0.14; N_a     0.26; O_a    -0.13; 
 -----------------------------------------------------------------------------
   8  Screening settings (-IFTHRS, JTDIIS, DIFDEN, times)  -12    8    T  1.25D+00  1.25D+00
@  8    -588.769377192        2.56705D-03   -1.00D-05    8
      Virial theorem: -V/T =      2.000634
@    MULPOP   Cl_a   -0.14; N_a     0.26; O_a    -0.13; 
 -----------------------------------------------------------------------------
   9  Screening settings (-IFTHRS, JTDIIS, DIFDEN, times)  -12    9    T  1.24D+00  1.25D+00
@  9    -588.769379031        9.20168D-04   -1.84D-06    8
      Virial theorem: -V/T =      2.000635
@    MULPOP   Cl_a   -0.13; N_a     0.26; O_a    -0.13; 
 -----------------------------------------------------------------------------
  10  Screening settings (-IFTHRS, JTDIIS, DIFDEN, times)  -12   10    T  1.24D+00  1.25D+00
@ 10    -588.769379278        3.21269D-04   -2.47D-07    8
      Virial theorem: -V/T =      2.000634
@    MULPOP   Cl_a   -0.13; N_a     0.26; O_a    -0.13; 
 -----------------------------------------------------------------------------
  11  Screening settings (-IFTHRS, JTDIIS, DIFDEN, times)  -12   11    T  1.15D+00  1.23D+00
@ 11    -588.769379310        1.17751D-04   -3.19D-08    8
      Virial theorem: -V/T =      2.000634
@    MULPOP   Cl_a   -0.13; N_a     0.26; O_a    -0.13; 
 -----------------------------------------------------------------------------
  12  Screening settings (-IFTHRS, JTDIIS, DIFDEN, times)  -12   12    T  1.07D+00  1.23D+00
@ 12    -588.769379314        3.91590D-05   -3.76D-09    8
      Virial theorem: -V/T =      2.000634
@    MULPOP   Cl_a   -0.13; N_a     0.26; O_a    -0.13; 
 -----------------------------------------------------------------------------
  13  Screening settings (-IFTHRS, JTDIIS, DIFDEN, times)  -12   13    T  1.07D+00  1.16D+00
@ 13    -588.769379314        2.21679D-05   -1.54D-10    8
      Virial theorem: -V/T =      2.000634
@    MULPOP   Cl_a   -0.13; N_a     0.26; O_a    -0.13; 
 -----------------------------------------------------------------------------
  14  Screening settings (-IFTHRS, JTDIIS, DIFDEN, times)  -12   14    T  1.14D+00  1.15D+00
@ 14    -588.769379314        5.44721D-06   -5.42D-11    8

@ *** DIIS converged in  14 iterations !
@     Converged SCF energy, gradient:   -588.769379314051    5.45D-06
    - total time used in SIRFCK :              0.00 seconds


 *** SCF orbital energy analysis ***

 Only the 20 lowest virtual orbital energies printed in each symmetry.

 Number of electrons :   32
 Orbital occupations :   16

 Sym       Hartree-Fock orbital energies

1 A    -104.83647727   -20.75867706   -15.85551536   -10.55974786    -8.02608592
         -8.02433208    -8.02421755    -1.68362193    -1.10574684    -0.96937110
         -0.77253242    -0.76410304    -0.72641341    -0.45905375    -0.45866524
         -0.43147379     0.03160218     0.04709550     0.07625135     0.09830629
          0.10965908     0.11566081     0.14095113     0.14800727     0.15871687
          0.18814370     0.19107351     0.22054698     0.26454872     0.30628963
          0.36422820     0.37009322     0.39994204     0.43122565     0.48588041
          0.50267909

    E(LUMO) :     0.03160218 au (symmetry 1)
  - E(HOMO) :    -0.43147379 au (symmetry 1)
  ------------------------------------------
    gap     :     0.46307597 au

 --- Writing SIRIFC interface file

 CPU and wall time for SCF :      16.824      17.703


                       .-----------------------------------.
                       | --- Final results from SIRIUS --- |
                       `-----------------------------------'


@    Spin multiplicity:           1
@    Spatial symmetry:            1 ( irrep  A   in C1  )
@    Total charge of molecule:    0

@    Final HF energy:            -588.769379314051                 
@    Nuclear repulsion:            85.148419784453
@    Electronic energy:          -673.917799098504

@    Final gradient norm:           0.000005447214

 
     Date and time (Linux)  : Wed Sep 13 18:55:26 2023
     Host name              : sn-mem                                  

File label for MO orbitals:  13Sep23   FOCKDIIS

 (Only coefficients > 0.0100 are printed.)

 Molecular orbitals for symmetry species 1  (A  )
 ------------------------------------------------

    Orbital         7        8        9       10       11       12       13
   3 Cl_a:1s    -0.0001  -0.0281  -0.8004   0.4735  -0.1482   0.2660   0.0000
   5 Cl_a:1s     0.0004  -0.0160   0.0157   0.0197  -0.0103   0.0629   0.0000
   6 Cl_a:1s    -0.0003  -0.0197   0.0215   0.0048  -0.0335   0.0505   0.0000
   7 Cl_a:2px    0.9669  -0.0006   0.0007   0.0005   0.0002   0.0014   0.0000
   8 Cl_a:2py   -0.2558  -0.0020   0.0015   0.0015   0.0025   0.0047  -0.0000
  10 Cl_a:2px   -0.0020  -0.0125  -0.0221  -0.0125   0.1031  -0.0288   0.0000
  11 Cl_a:2py    0.0005  -0.0289  -0.0883  -0.0821   0.1204  -0.2408  -0.0000
  12 Cl_a:2pz   -0.0000  -0.0000  -0.0000  -0.0000   0.0000   0.0000   0.0955
  16 Cl_a:2px    0.0007  -0.0004   0.0058   0.0053  -0.0141   0.0060  -0.0000
  17 Cl_a:2py    0.0002  -0.0085   0.0321   0.0221  -0.0259   0.0693   0.0000
  18 Cl_a:2pz    0.0000  -0.0000   0.0000   0.0000  -0.0000  -0.0000  -0.0155
  26 Cl_a:3d2+   0.0002   0.0013   0.0063   0.0050  -0.0028   0.0124  -0.0000
  27 Cl_a:3d2-  -0.0006  -0.0053  -0.0051  -0.0017   0.0103  -0.0036  -0.0000
  31 Cl_a:3d2+  -0.0004   0.0059   0.0096   0.0061  -0.0080   0.0138  -0.0000
  51 N_a :1s    -0.0001   0.0136  -0.0013  -0.0038  -0.0024  -0.0059  -0.0000
  52 N_a :1s    -0.0003  -0.5221  -0.3583  -0.6219  -0.1238  -0.3362  -0.0000
  54 N_a :1s     0.0021   0.1576  -0.0294  -0.0136  -0.0608  -0.1603   0.0000
  55 N_a :1s     0.0023   0.0124  -0.0374  -0.0027   0.0205  -0.0610  -0.0000
  56 N_a :2px   -0.0000  -0.3002   0.1497   0.0345   0.2830   0.6383   0.0000
  57 N_a :2py   -0.0000  -0.0311   0.1379  -0.0829  -0.4487   0.1528  -0.0000
  58 N_a :2pz   -0.0000   0.0000   0.0000  -0.0000  -0.0000  -0.0000   0.5578
  59 N_a :2px    0.0001   0.0294  -0.0128  -0.0051  -0.0163  -0.0382  -0.0000
  62 N_a :2px    0.0020   0.0958  -0.0458  -0.0261  -0.0598  -0.1062   0.0000
  63 N_a :2py    0.0006  -0.0074  -0.0153   0.0129   0.0862  -0.0104   0.0000
  64 N_a :2pz   -0.0000   0.0000  -0.0000   0.0000  -0.0000  -0.0000  -0.0748
  65 N_a :2px    0.0004  -0.0000   0.0003  -0.0019  -0.0100  -0.0008   0.0000
  66 N_a :2py   -0.0005  -0.0074   0.0057  -0.0058  -0.0112   0.0083  -0.0000
  68 N_a :3d2-   0.0000  -0.0033   0.0013  -0.0016  -0.0159   0.0056   0.0000
  71 N_a :3d1+   0.0000  -0.0000  -0.0000  -0.0000   0.0000   0.0000   0.0200
  72 N_a :3d2+   0.0000  -0.0160   0.0050  -0.0035   0.0066   0.0152  -0.0000
  73 N_a :3d2-  -0.0001  -0.0013  -0.0043  -0.0017  -0.0289   0.0028  -0.0000
  76 N_a :3d1+  -0.0000   0.0000   0.0000   0.0000  -0.0000  -0.0000   0.0378
  77 N_a :3d2+  -0.0001  -0.0184   0.0154  -0.0043   0.0037   0.0203  -0.0000
  78 N_a :3d2-  -0.0001   0.0052  -0.0100   0.0024   0.0192  -0.0198  -0.0000
  82 N_a :3d2+   0.0002   0.0021   0.0036  -0.0107  -0.0094   0.0091   0.0000
  98 O_a :1s     0.0004  -0.7260   0.3065   0.5317  -0.0479  -0.1430   0.0000
 100 O_a :1s    -0.0024   0.0811   0.0499   0.1338  -0.0018  -0.0622  -0.0000
 101 O_a :1s    -0.0025   0.0184   0.0217   0.0256  -0.0005   0.0008   0.0000
 102 O_a :2px   -0.0001   0.2499   0.0874   0.4513  -0.0590  -0.5892  -0.0000
 103 O_a :2py    0.0000   0.0351   0.0712   0.0083  -0.7371   0.1042  -0.0000
 104 O_a :2pz   -0.0000   0.0000  -0.0000  -0.0000  -0.0000  -0.0000   0.6874
 105 O_a :2px    0.0001  -0.0034  -0.0063  -0.0160   0.0001   0.0096   0.0000
 108 O_a :2px    0.0009  -0.0688  -0.0265  -0.0805   0.0026   0.0484   0.0000
 109 O_a :2py    0.0000  -0.0103  -0.0028  -0.0072   0.0060   0.0145   0.0000
 111 O_a :2px    0.0005  -0.0103  -0.0035  -0.0012   0.0036  -0.0034  -0.0000
 114 O_a :3d2-  -0.0000  -0.0031  -0.0018  -0.0011   0.0115   0.0009  -0.0000
 117 O_a :3d1+   0.0000  -0.0000   0.0000  -0.0000   0.0000   0.0000  -0.0130
 118 O_a :3d2+  -0.0000  -0.0099  -0.0004  -0.0075   0.0000   0.0106  -0.0000
 119 O_a :3d2-   0.0000  -0.0054  -0.0061  -0.0011   0.0290  -0.0019   0.0000
 121 O_a :3d0    0.0002   0.0110   0.0001   0.0059  -0.0033  -0.0093   0.0000
 122 O_a :3d1+  -0.0000   0.0000  -0.0000   0.0000  -0.0000  -0.0000  -0.0355
 123 O_a :3d2+   0.0000  -0.0196   0.0006  -0.0135  -0.0009   0.0194   0.0000
 124 O_a :3d2-   0.0002   0.0015  -0.0045   0.0004   0.0221  -0.0058   0.0000
 127 O_a :3d1+  -0.0000   0.0000  -0.0000   0.0000  -0.0000  -0.0000  -0.0243

    Orbital        14       15       16       17       18       19       20
   2 Cl_a:1s     0.0000   0.0011  -0.0006   0.0000  -0.0067   0.0037   0.0488
   3 Cl_a:1s     0.0000   0.0132  -0.0253   0.0000  -0.1800  -0.0894   0.0932
   5 Cl_a:1s    -0.0000   0.0031  -0.0207   0.0000  -0.0374  -0.0978  -0.3016
   6 Cl_a:1s     0.0000   0.0047  -0.0138  -0.0000  -1.6460   0.5724  -4.4814
   7 Cl_a:2px    0.0000  -0.0008   0.0001   0.0000   0.0016  -0.0109   0.0122
   8 Cl_a:2py    0.0000   0.0005   0.0008   0.0000  -0.0006  -0.0140  -0.0001
  10 Cl_a:2px   -0.0000  -0.9564   0.0392   0.0000  -0.1027  -0.1108   0.0556
  11 Cl_a:2py    0.0000   0.1428   0.7401   0.0000  -0.4144  -0.1308   0.3064
  12 Cl_a:2pz    0.9554  -0.0000  -0.0000   0.1740   0.0000  -0.0000  -0.0000
  13 Cl_a:2px   -0.0000   0.0021  -0.0026   0.0000  -0.0022   0.0132  -0.0162
  14 Cl_a:2py    0.0000   0.0008  -0.0080  -0.0000  -0.0002   0.0185   0.0093
  16 Cl_a:2px    0.0000  -0.0155  -0.0147  -0.0000  -0.1303   0.1307  -0.3480
  17 Cl_a:2py   -0.0000   0.0057  -0.0023   0.0000  -0.3756   0.2234  -0.7920
  18 Cl_a:2pz    0.0188   0.0000   0.0000   0.0524  -0.0000  -0.0000   0.0000
  19 Cl_a:2px   -0.0000  -0.0198   0.0004   0.0000  -0.2336  -0.1951  -0.2553
  20 Cl_a:2py    0.0000   0.0043   0.0165   0.0000  -0.8936  -0.0944  -1.9090
  21 Cl_a:2pz    0.0200  -0.0000  -0.0000   0.1669   0.0000   0.0000  -0.0000
  22 Cl_a:3d2-   0.0000  -0.0036   0.0087  -0.0000   0.0179   0.0074  -0.0080
  23 Cl_a:3d1-   0.0044   0.0000   0.0000  -0.0212   0.0000  -0.0000   0.0000
  24 Cl_a:3d0    0.0000   0.0014  -0.0060  -0.0000  -0.0189  -0.0024   0.0085
  26 Cl_a:3d2+   0.0000   0.0011  -0.0099  -0.0000  -0.0302  -0.0025   0.0157
  27 Cl_a:3d2-   0.0000  -0.0078   0.0141  -0.0000   0.0210   0.0003  -0.0442
  28 Cl_a:3d1-   0.0099   0.0000   0.0000  -0.0305   0.0000  -0.0000   0.0000
  29 Cl_a:3d0    0.0000   0.0023  -0.0101  -0.0000  -0.0192  -0.0017   0.0409
  31 Cl_a:3d2+   0.0000   0.0000  -0.0167  -0.0000  -0.0374  -0.0149   0.0377
  32 Cl_a:3d2-   0.0000  -0.0046  -0.0000  -0.0000  -0.0491   0.1008  -0.1623
  33 Cl_a:3d1-   0.0069   0.0000   0.0000  -0.0174   0.0000  -0.0000   0.0000
  34 Cl_a:3d0    0.0000   0.0019  -0.0033  -0.0000   0.0362  -0.0534   0.1847
  36 Cl_a:3d2+   0.0000  -0.0008  -0.0079  -0.0000   0.0543  -0.0308   0.3340
  44 Cl_a:4f3-   0.0000  -0.0025  -0.0031  -0.0000   0.0078  -0.0037   0.0310
  46 Cl_a:4f1-   0.0000   0.0008  -0.0036  -0.0000   0.0103  -0.0060   0.0335
  50 Cl_a:4f3+  -0.0000   0.0027  -0.0030   0.0000   0.0125  -0.0078   0.0371
  51 N_a :1s     0.0000   0.0004  -0.0064   0.0000   0.0014   0.0117  -0.0082
  52 N_a :1s     0.0000  -0.0046  -0.2442   0.0000   0.2132   0.0445  -0.0953
  53 N_a :1s     0.0000   0.0006  -0.0068   0.0000   0.0039  -0.0126  -0.0029
  54 N_a :1s    -0.0000  -0.0210  -0.0911   0.0000   0.0736   2.0551   0.8235
  55 N_a :1s    -0.0000  -0.0163  -0.0534  -0.0000   1.1653   5.8298   7.0216
  56 N_a :2px    0.0000   0.0303   0.2308   0.0000  -0.0622   0.0494  -0.0008
  57 N_a :2py    0.0000   0.0123  -0.3443   0.0000  -0.5899  -0.1958   0.3458
  58 N_a :2pz   -0.0043  -0.0000   0.0000  -0.6992  -0.0000   0.0000   0.0000
  59 N_a :2px    0.0000  -0.0040  -0.0087  -0.0000  -0.0038   0.1232   0.0670
  60 N_a :2py   -0.0000   0.0012  -0.0051   0.0000  -0.0011   0.0134   0.0543
  62 N_a :2px   -0.0000  -0.0150  -0.0254   0.0000  -0.1439   1.4463   0.1804
  63 N_a :2py   -0.0000   0.0139  -0.0691   0.0000  -0.3685   0.3019  -0.4295
  64 N_a :2pz    0.0146  -0.0000  -0.0000  -0.2260  -0.0000   0.0000  -0.0000
  65 N_a :2px    0.0000  -0.0029   0.0033   0.0000  -0.1290   1.8763   0.1397
  66 N_a :2py    0.0000   0.0064  -0.0266  -0.0000  -1.1714   0.6327  -2.6247
  67 N_a :2pz    0.0037  -0.0000   0.0000  -0.5932  -0.0000  -0.0000   0.0000
  73 N_a :3d2-   0.0000   0.0020   0.0294   0.0000   0.0041   0.0207   0.0248
  74 N_a :3d1-  -0.0151   0.0000   0.0000   0.0086   0.0000  -0.0000   0.0000
  75 N_a :3d0    0.0000   0.0008  -0.0155  -0.0000   0.0076  -0.0492  -0.0132
  76 N_a :3d1+  -0.0130  -0.0000   0.0000   0.0207  -0.0000   0.0000   0.0000
  77 N_a :3d2+   0.0000   0.0153  -0.0221   0.0000  -0.0121   0.0769   0.0155
  78 N_a :3d2-   0.0000   0.0055   0.0022  -0.0000  -0.0198   0.1295   0.1878
  79 N_a :3d1-  -0.0102   0.0000   0.0000   0.0035   0.0000  -0.0000   0.0000
  80 N_a :3d0    0.0000   0.0033  -0.0070  -0.0000  -0.0303  -0.1190  -0.2500
  81 N_a :3d1+  -0.0026   0.0000  -0.0000  -0.0110  -0.0000   0.0000  -0.0000
  82 N_a :3d2+  -0.0000   0.0078  -0.0291   0.0000  -0.0559   0.3385  -0.2634
  90 N_a :4f3-  -0.0000  -0.0046   0.0088   0.0000   0.0033   0.0176   0.0278
  92 N_a :4f1-   0.0000  -0.0008   0.0007  -0.0000   0.0023  -0.0073   0.0210
  94 N_a :4f1+   0.0000   0.0009   0.0010  -0.0000   0.0020  -0.0188   0.0013
  96 N_a :4f3+   0.0000   0.0051  -0.0016  -0.0000   0.0020   0.0221   0.0135
  97 O_a :1s    -0.0000  -0.0002   0.0009  -0.0000  -0.0012   0.0109   0.0042
  98 O_a :1s    -0.0000   0.0307   0.0260  -0.0000   0.0090  -0.0861   0.0026
 100 O_a :1s     0.0000   0.0078   0.0286  -0.0000   0.1303  -1.5442  -0.3192
 101 O_a :1s     0.0000   0.0091   0.0211   0.0000   0.3202  -6.3892  -2.7214
 102 O_a :2px    0.0000  -0.0245  -0.1308   0.0000   0.0317  -0.0652  -0.0322
 103 O_a :2py    0.0000  -0.1733   0.4944   0.0000   0.3078   0.0469  -0.0872
 104 O_a :2pz   -0.1693   0.0000  -0.0000   0.5751   0.0000   0.0000  -0.0000
 105 O_a :2px   -0.0000   0.0006   0.0000   0.0000  -0.0038   0.0552   0.0218
 108 O_a :2px   -0.0000   0.0007  -0.0080  -0.0000  -0.0881   1.0169   0.3408
 109 O_a :2py    0.0000  -0.0109   0.0489  -0.0000   0.1126   0.0988  -0.0450
 110 O_a :2pz   -0.0107  -0.0000   0.0000   0.1688   0.0000  -0.0000   0.0000
 111 O_a :2px    0.0000   0.0001  -0.0095   0.0000  -0.1209   1.7732   0.8186
 112 O_a :2py   -0.0000  -0.0115   0.0390   0.0000   0.4043   0.2436   0.3705
 113 O_a :2pz   -0.0099   0.0000  -0.0000   0.4826   0.0000   0.0000  -0.0000
 119 O_a :3d2-  -0.0000   0.0023   0.0029   0.0000   0.0172   0.0007  -0.0161
 121 O_a :3d0    0.0000  -0.0009  -0.0010   0.0000  -0.0002   0.0190   0.0098
 122 O_a :3d1+   0.0033  -0.0000   0.0000   0.0171  -0.0000   0.0000  -0.0000
 123 O_a :3d2+  -0.0000   0.0024  -0.0013   0.0000   0.0010  -0.0384  -0.0166
 124 O_a :3d2-  -0.0000  -0.0001  -0.0045   0.0000  -0.0097  -0.0343  -0.0083
 126 O_a :3d0   -0.0000  -0.0009   0.0032  -0.0000  -0.0148   0.1149   0.0687
 127 O_a :3d1+   0.0029  -0.0000  -0.0000  -0.0102  -0.0000   0.0000  -0.0000
 128 O_a :3d2+   0.0000  -0.0006  -0.0002   0.0000   0.0184  -0.1790  -0.0652
 140 O_a :4f1+  -0.0000   0.0005  -0.0010   0.0000   0.0007  -0.0105  -0.0103
 142 O_a :4f3+  -0.0000  -0.0004   0.0010  -0.0000  -0.0017   0.0117   0.0090

    Orbital        21       22       23       24       25       26
   1 Cl_a:1s     0.0051  -0.0000  -0.0028   0.0000  -0.0113   0.0182
   2 Cl_a:1s     0.0284   0.0000  -0.0203  -0.0000  -0.0704   0.1136
   3 Cl_a:1s    -0.0611   0.0000  -0.0669  -0.0000  -0.0133   0.0597
   4 Cl_a:1s    -0.0152   0.0000  -0.0019   0.0000   0.0152  -0.0310
   5 Cl_a:1s    -0.2321   0.0000   0.1182  -0.0000   0.8332  -0.9868
   6 Cl_a:1s    -0.2306   0.0000   1.3732  -0.0000  -0.1575  -0.1746
   7 Cl_a:2px   -0.0354   0.0000   0.0423   0.0000   0.0161   0.0097
   8 Cl_a:2py   -0.0081  -0.0000  -0.0239  -0.0000   0.0135  -0.0034
   9 Cl_a:2pz   -0.0000   0.0572   0.0000  -0.0272  -0.0000  -0.0000
  10 Cl_a:2px    0.0188  -0.0000  -0.0185   0.0000   0.0805  -0.0367
  11 Cl_a:2py    0.0455   0.0000  -0.0426  -0.0000   0.2557  -0.1103
  12 Cl_a:2pz    0.0000   0.0017   0.0000   0.0387  -0.0000   0.0000
  13 Cl_a:2px    0.0520   0.0000  -0.0640  -0.0000  -0.0215  -0.0141
  14 Cl_a:2py    0.0128  -0.0000   0.0329   0.0000  -0.0135   0.0030
  15 Cl_a:2pz    0.0000  -0.0841  -0.0000   0.0419   0.0000   0.0000
  16 Cl_a:2px    0.3981  -0.0000  -0.2449   0.0000  -0.0475  -0.3128
  17 Cl_a:2py   -0.0358   0.0000   0.5067  -0.0000   0.4935  -0.3970
  18 Cl_a:2pz   -0.0000  -0.5333   0.0000   0.2274  -0.0000  -0.0000
  19 Cl_a:2px   -0.7692   0.0000   1.7820  -0.0000  -0.6997   0.0269
  20 Cl_a:2py   -0.9523  -0.0000  -0.4251   0.0000  -0.8861   0.5126
  21 Cl_a:2pz    0.0000   0.8038  -0.0000  -1.6216   0.0000   0.0000
  24 Cl_a:3d0    0.0054  -0.0000  -0.0019   0.0000   0.0061   0.0144
  27 Cl_a:3d2-   0.0225  -0.0000  -0.0191   0.0000   0.0534  -0.0338
  28 Cl_a:3d1-  -0.0000   0.0007   0.0000   0.0522  -0.0000  -0.0000
  29 Cl_a:3d0   -0.0265  -0.0000  -0.0284   0.0000  -0.0286   0.0375
  30 Cl_a:3d1+  -0.0000  -0.0005   0.0000   0.0134  -0.0000   0.0000
  31 Cl_a:3d2+  -0.0035  -0.0000  -0.0495   0.0000  -0.0455   0.0351
  32 Cl_a:3d2-   0.0110  -0.0000   0.1504   0.0000  -0.1385   0.0101
  33 Cl_a:3d1-  -0.0000  -0.0721   0.0000  -0.1796  -0.0000  -0.0000
  34 Cl_a:3d0    0.1058  -0.0000  -0.0302   0.0000   0.0617   0.0466
  35 Cl_a:3d1+  -0.0000  -0.0185   0.0000  -0.0481  -0.0000   0.0000
  36 Cl_a:3d2+   0.1299  -0.0000   0.0008   0.0000   0.0102  -0.0934
  44 Cl_a:4f3-   0.0171  -0.0000   0.0004   0.0000  -0.0097  -0.0231
  46 Cl_a:4f1-   0.0071  -0.0000  -0.0097   0.0000   0.0169  -0.0057
  47 Cl_a:4f0    0.0000   0.0083  -0.0000   0.0111   0.0000   0.0000
  49 Cl_a:4f2+   0.0000   0.0076  -0.0000   0.0105   0.0000   0.0000
  50 Cl_a:4f3+  -0.0139   0.0000  -0.0187  -0.0000   0.0142  -0.0082
  51 N_a :1s    -0.0074   0.0000  -0.0014  -0.0000  -0.0109  -0.0200
  52 N_a :1s    -0.1367   0.0000  -0.0330  -0.0000  -0.0699  -0.1590
  53 N_a :1s    -0.0089   0.0000  -0.0029  -0.0000  -0.0086  -0.0215
  54 N_a :1s    -0.5425   0.0000  -0.5944  -0.0000   0.1538  -0.4114
  55 N_a :1s     0.6530  -0.0000  -3.4335   0.0000   0.5847   1.9416
  56 N_a :2px    0.0638   0.0000   0.0200  -0.0000  -0.0332  -0.0020
  57 N_a :2py   -0.0536  -0.0000  -0.1125   0.0000   0.2091  -0.1313
  58 N_a :2pz    0.0000  -0.1441  -0.0000  -0.1940   0.0000   0.0000
  59 N_a :2px   -0.0483  -0.0000  -0.0477   0.0000   0.0010  -0.0039
  60 N_a :2py    0.0215   0.0000  -0.0077  -0.0000  -0.0353   0.0188
  62 N_a :2px   -0.0927   0.0000  -0.1608  -0.0000   0.5325   0.6305
  63 N_a :2py    0.0781   0.0000   0.2374  -0.0000  -0.1115  -0.3422
  64 N_a :2pz    0.0000  -0.2650  -0.0000  -0.4102   0.0000   0.0000
  65 N_a :2px   -0.8506   0.0000  -1.9441   0.0000   1.8820   1.5013
  66 N_a :2py    0.7508  -0.0000   1.2330   0.0000   0.7283  -1.2313
  67 N_a :2pz    0.0000   0.5067  -0.0000   1.6543   0.0000  -0.0000
  73 N_a :3d2-   0.0031   0.0000  -0.0012  -0.0000  -0.0311  -0.0140
  75 N_a :3d0   -0.0065  -0.0000  -0.0068   0.0000  -0.0149  -0.0143
  76 N_a :3d1+   0.0000  -0.0387  -0.0000  -0.0555   0.0000   0.0000
  77 N_a :3d2+  -0.0011   0.0000  -0.0051  -0.0000   0.0227   0.0535
  78 N_a :3d2-   0.3119  -0.0000   0.1178   0.0000  -0.3493  -0.0410
  79 N_a :3d1-  -0.0000  -0.0762   0.0000  -0.1435  -0.0000  -0.0000
  80 N_a :3d0   -0.0060  -0.0000   0.1118   0.0000  -0.0526  -0.2612
  81 N_a :3d1+   0.0000  -0.0887  -0.0000  -0.1259   0.0000   0.0000
  82 N_a :3d2+   0.0162   0.0000   0.0853  -0.0000   0.4594   0.1921
  90 N_a :4f3-   0.0184   0.0000   0.0075  -0.0000  -0.0483   0.0137
  92 N_a :4f1-  -0.0062  -0.0000  -0.0153   0.0000  -0.0128   0.0250
  93 N_a :4f0   -0.0000   0.0018   0.0000   0.0107  -0.0000  -0.0000
  94 N_a :4f1+   0.0029  -0.0000  -0.0041   0.0000  -0.0282  -0.0339
  95 N_a :4f2+  -0.0000  -0.0224   0.0000  -0.0267  -0.0000  -0.0000
  96 N_a :4f3+   0.0257  -0.0000  -0.0042   0.0000   0.0159   0.0440
  97 O_a :1s    -0.0063  -0.0000  -0.0028   0.0000  -0.0014  -0.0121
  98 O_a :1s     0.0024  -0.0000   0.0236   0.0000   0.0006  -0.0558
 100 O_a :1s     0.0282  -0.0000   0.1425   0.0000  -0.6115  -0.7192
 101 O_a :1s     1.1226   0.0000   2.8455  -0.0000  -0.8922  -1.1597
 102 O_a :2px   -0.0124   0.0000  -0.0054  -0.0000   0.0532   0.0185
 103 O_a :2py    0.0092  -0.0000   0.0378   0.0000  -0.1919   0.0526
 104 O_a :2pz   -0.0000  -0.0529   0.0000  -0.0180  -0.0000  -0.0000
 105 O_a :2px    0.0059   0.0000  -0.0001  -0.0000   0.0300   0.0503
 106 O_a :2py    0.0134   0.0000   0.0057  -0.0000   0.0146   0.0033
 107 O_a :2pz   -0.0000   0.0124   0.0000   0.0148   0.0000   0.0000
 108 O_a :2px   -0.1916   0.0000  -0.2435  -0.0000   0.0533   0.0438
 109 O_a :2py   -0.2458  -0.0000  -0.1605   0.0000   0.2719   0.2371
 110 O_a :2pz   -0.0000   0.1104   0.0000   0.1993  -0.0000  -0.0000
 111 O_a :2px   -0.0652   0.0000  -0.4305  -0.0000  -1.0586  -1.5972
 112 O_a :2py   -0.7831   0.0000  -0.2659  -0.0000   0.1250   0.5080
 113 O_a :2pz   -0.0000   0.1589   0.0000   0.0466  -0.0000   0.0000
 119 O_a :3d2-   0.0005   0.0000   0.0075  -0.0000  -0.0161  -0.0153
 121 O_a :3d0   -0.0086   0.0000  -0.0088  -0.0000   0.0215   0.0240
 123 O_a :3d2+   0.0041   0.0000   0.0074  -0.0000  -0.0087  -0.0372
 124 O_a :3d2-   0.1254   0.0000   0.0704  -0.0000  -0.1516  -0.0391
 125 O_a :3d1-   0.0000   0.0134  -0.0000   0.0142   0.0000  -0.0000
 126 O_a :3d0   -0.0523  -0.0000  -0.0427   0.0000  -0.1123  -0.0723
 127 O_a :3d1+   0.0000  -0.0931  -0.0000  -0.1332   0.0000   0.0000
 128 O_a :3d2+   0.0267   0.0000   0.0451  -0.0000   0.1196   0.2450
 136 O_a :4f3-  -0.0085  -0.0000  -0.0078   0.0000   0.0148   0.0019
 139 O_a :4f0    0.0000  -0.0088  -0.0000  -0.0147   0.0000   0.0000
 140 O_a :4f1+   0.0108   0.0000   0.0078  -0.0000   0.0097   0.0115
 141 O_a :4f2+   0.0000   0.0134   0.0000   0.0186  -0.0000  -0.0000
 142 O_a :4f3+  -0.0004   0.0000  -0.0058  -0.0000  -0.0155  -0.0255

  Total CPU  time used in SIRIUS :  17.01 seconds
  Total wall time used in SIRIUS :  17.89 seconds

 
     Date and time (Linux)  : Wed Sep 13 18:55:26 2023
     Host name              : sn-mem                                  


                     .---------------------------------------.
                     | End of Wave Function Section (SIRIUS) |
                     `---------------------------------------'



                 .------------------------------------------------.
                 | Starting in Dynamic Property Section (RESPONS) |
                 `------------------------------------------------'


 ----------------------------------------------------------------------------------------
  RESPONSE  -  an MCSCF, MC-srDFT, DFT, SOPPA and SOPPA-srDFT response property program
 ----------------------------------------------------------------------------------------


 -------- OUTPUT FROM RESPONSE INPUT PROCESSING --------




 Quadratic Response calculation
 ------------------------------

 First hyperpolarizability calculation : HYPCAL= T

 Spin of operator A , ISPINA=    0
 Spin of operator B , ISPINB=    0
 Spin of operator C , ISPINC=    0

  5 B-frequencies  0.000000D+00  6.344563D-03  1.268913D-02  1.903369D-02  2.537825D-02
  5 C-frequencies  0.000000D+00  6.344563D-03  1.268913D-02  1.903369D-02  2.537825D-02


 Print level                                    : IPRHYP =   2
 Maximum number of iterations in lin.rsp. solver: MAXITL =  60
 Threshold for convergence of linear resp. eq.s : THCLR  = 1.000D-03
 Maximum iterations in optimal orbital algorithm: MAXITO =   5
 Direct one-index transformation                : DIROIT = T

    3 A OPERATORS OF SYMMETRY NO:    1 AND LABELS:

          XDIPLEN 
          YDIPLEN 
          ZDIPLEN 

    3 B OPERATORS OF SYMMETRY NO:    1 AND LABELS:

          XDIPLEN 
          YDIPLEN 
          ZDIPLEN 

    3 C OPERATORS OF SYMMETRY NO:    1 AND LABELS:

          XDIPLEN 
          YDIPLEN 
          ZDIPLEN 


   SCF energy         :     -588.769379314051093
 -- inactive part     :     -673.917799098504133
 -- nuclear repulsion :       85.148419784453068


                     ***************************************
                     *** RHF response calculation (TDHF) ***
                     ***************************************



 Linear response calculations for quadratic response
 - singlet property operator of symmetry    1  ( A  )


 Perturbation symmetry.     KSYMOP:           1
 Perturbation spin symmetry.TRPLET:           F
 Orbital variables.         KZWOPT:        2016
 Configuration variables.   KZCONF:           0
 Total number of variables. KZVAR :        2016


 QRLRVE -- linear response calculation for symmetry  1  ( A  )
 QRLRVE -- operator label : XDIPLEN 
 QRLRVE -- operator spin  :   0
 QRLRVE -- frequencies :  0.000000  0.006345  0.012689  0.019034  0.025378
                          0.031723  0.038067  0.044412  0.050757



 ---  SOLVING SETS OF LINEAR EQUATIONS FOR LINEAR RESPONSE PROPERTIES ---

 Operator symmetry = 1  ( A  ); triplet =   F

RSPORT:    2 out of    9 new trial vectors linear dependent

 ** RSPCTL MICROITERATION NUMBER    1

       No.  Residual tot.,    conf., and orb.    Bnorm      Frequency 
      ----------------------------------------------------------------
         1    4.16349D+00  0.00D+00  4.16D+00  4.04D+00    0.00000D+00
         2    4.16422D+00  0.00D+00  4.16D+00  4.04D+00    6.34456D-03
         3    4.16639D+00  0.00D+00  4.17D+00  4.05D+00    1.26891D-02
         4    4.17001D+00  0.00D+00  4.17D+00  4.05D+00    1.90337D-02
         5    4.17511D+00  0.00D+00  4.18D+00  4.07D+00    2.53783D-02
         6    4.18170D+00  0.00D+00  4.18D+00  4.08D+00    3.17228D-02
         7    4.18981D+00  0.00D+00  4.19D+00  4.10D+00    3.80674D-02
         8    4.19947D+00  0.00D+00  4.20D+00  4.12D+00    4.44119D-02
         9    4.21072D+00  0.00D+00  4.21D+00  4.15D+00    5.07565D-02

 ** RSPCTL MICROITERATION NUMBER    2

       No.  Residual tot.,    conf., and orb.    Bnorm      Frequency 
      ----------------------------------------------------------------
         1    1.15230D+00  0.00D+00  1.15D+00  5.02D+00    0.00000D+00
         2    1.15272D+00  0.00D+00  1.15D+00  5.02D+00    6.34456D-03
         3    1.15398D+00  0.00D+00  1.15D+00  5.03D+00    1.26891D-02
         4    1.15608D+00  0.00D+00  1.16D+00  5.04D+00    1.90337D-02
         5    1.15905D+00  0.00D+00  1.16D+00  5.06D+00    2.53783D-02
         6    1.16292D+00  0.00D+00  1.16D+00  5.09D+00    3.17228D-02
         7    1.16772D+00  0.00D+00  1.17D+00  5.12D+00    3.80674D-02
         8    1.17350D+00  0.00D+00  1.17D+00  5.16D+00    4.44119D-02
         9    1.18031D+00  0.00D+00  1.18D+00  5.20D+00    5.07565D-02

 ** RSPCTL MICROITERATION NUMBER    3

       No.  Residual tot.,    conf., and orb.    Bnorm      Frequency 
      ----------------------------------------------------------------
         1    2.56304D-01  0.00D+00  2.56D-01  5.16D+00    0.00000D+00
         2    2.56457D-01  0.00D+00  2.56D-01  5.16D+00    6.34456D-03
         3    2.56919D-01  0.00D+00  2.57D-01  5.17D+00    1.26891D-02
         4    2.57695D-01  0.00D+00  2.58D-01  5.19D+00    1.90337D-02
         5    2.58791D-01  0.00D+00  2.59D-01  5.21D+00    2.53783D-02
         6    2.60219D-01  0.00D+00  2.60D-01  5.24D+00    3.17228D-02
         7    2.61993D-01  0.00D+00  2.62D-01  5.27D+00    3.80674D-02
         8    2.64133D-01  0.00D+00  2.64D-01  5.31D+00    4.44119D-02
         9    2.66663D-01  0.00D+00  2.67D-01  5.36D+00    5.07565D-02

 ** RSPCTL MICROITERATION NUMBER    4

       No.  Residual tot.,    conf., and orb.    Bnorm      Frequency 
      ----------------------------------------------------------------
         1    4.74361D-02  0.00D+00  4.74D-02  5.16D+00    0.00000D+00
         2    4.74806D-02  0.00D+00  4.75D-02  5.17D+00    6.34456D-03
         3    4.76148D-02  0.00D+00  4.76D-02  5.18D+00    1.26891D-02
         4    4.78402D-02  0.00D+00  4.78D-02  5.19D+00    1.90337D-02
         5    4.81600D-02  0.00D+00  4.82D-02  5.21D+00    2.53783D-02
         6    4.85784D-02  0.00D+00  4.86D-02  5.24D+00    3.17228D-02
         7    4.91013D-02  0.00D+00  4.91D-02  5.28D+00    3.80674D-02
         8    4.97359D-02  0.00D+00  4.97D-02  5.32D+00    4.44119D-02
         9    5.04918D-02  0.00D+00  5.05D-02  5.37D+00    5.07565D-02

 ** RSPCTL MICROITERATION NUMBER    5

       No.  Residual tot.,    conf., and orb.    Bnorm      Frequency 
      ----------------------------------------------------------------
         1    6.93961D-03  0.00D+00  6.94D-03  5.16D+00    0.00000D+00
         2    6.94796D-03  0.00D+00  6.95D-03  5.17D+00    6.34456D-03
         3    6.97315D-03  0.00D+00  6.97D-03  5.18D+00    1.26891D-02
         4    7.01559D-03  0.00D+00  7.02D-03  5.19D+00    1.90337D-02
         5    7.07599D-03  0.00D+00  7.08D-03  5.21D+00    2.53783D-02
         6    7.15536D-03  0.00D+00  7.16D-03  5.24D+00    3.17228D-02
         7    7.25509D-03  0.00D+00  7.26D-03  5.28D+00    3.80674D-02
         8    7.37697D-03  0.00D+00  7.38D-03  5.32D+00    4.44119D-02
         9    7.52329D-03  0.00D+00  7.52D-03  5.37D+00    5.07565D-02

 ** RSPCTL MICROITERATION NUMBER    6

       No.  Residual tot.,    conf., and orb.    Bnorm      Frequency 
      ----------------------------------------------------------------
         1    8.77766D-04  0.00D+00  8.78D-04  5.16D+00    0.00000D+00
         2    8.78865D-04  0.00D+00  8.79D-04  5.17D+00    6.34456D-03
         3    8.82185D-04  0.00D+00  8.82D-04  5.18D+00    1.26891D-02
         4    8.87793D-04  0.00D+00  8.88D-04  5.19D+00    1.90337D-02
         5    8.95804D-04  0.00D+00  8.96D-04  5.21D+00    2.53783D-02
         6    9.06387D-04  0.00D+00  9.06D-04  5.24D+00    3.17228D-02
         7    9.19771D-04  0.00D+00  9.20D-04  5.28D+00    3.80674D-02
         8    9.36260D-04  0.00D+00  9.36D-04  5.32D+00    4.44119D-02
         9    9.56240D-04  0.00D+00  9.56D-04  5.37D+00    5.07565D-02

 *** THE REQUESTED    9 SOLUTION VECTORS CONVERGED

 Convergence of RSP solution vectors, threshold = 1.00D-03
 ---------------------------------------------------------------
 (dimension of paired reduced space:  104)
 RSP solution vector no.    1; norm of residual   1.70D-04
 RSP solution vector no.    2; norm of residual   1.70D-04
 RSP solution vector no.    3; norm of residual   1.70D-04
 RSP solution vector no.    4; norm of residual   1.71D-04
 RSP solution vector no.    5; norm of residual   1.72D-04
 RSP solution vector no.    6; norm of residual   1.73D-04
 RSP solution vector no.    7; norm of residual   1.74D-04
 RSP solution vector no.    8; norm of residual   1.76D-04
 RSP solution vector no.    9; norm of residual   1.78D-04

 *** RSPCTL MICROITERATIONS CONVERGED

@ QRLRVE: SINGLET SOLUTION FOR SYMMETRY    1  ( A  )    LABEL   XDIPLEN     FREQUENCY   0.000000D+00

@ QRLRVE:  << XDIPLEN  ; XDIPLEN  >> (   0.00000):     31.3735956158    

@ QRLRVE:  << YDIPLEN  ; XDIPLEN  >> (   0.00000):     12.8981166451    

@ QRLRVE:  << ZDIPLEN  ; XDIPLEN  >> (   0.00000):   -6.967835443264E-15

@ QRLRVE: SINGLET SOLUTION FOR SYMMETRY    1  ( A  )    LABEL   XDIPLEN     FREQUENCY   0.634456D-02

@ QRLRVE:  << XDIPLEN  ; XDIPLEN  >> (   0.00634):     31.3803964051    

@ QRLRVE:  << YDIPLEN  ; XDIPLEN  >> (   0.00634):     12.9062012513    

@ QRLRVE:  << ZDIPLEN  ; XDIPLEN  >> (   0.00634):   -6.984611795928E-15

@ QRLRVE: SINGLET SOLUTION FOR SYMMETRY    1  ( A  )    LABEL   XDIPLEN     FREQUENCY   0.126891D-01

@ QRLRVE:  << XDIPLEN  ; XDIPLEN  >> (   0.01269):     31.4008365990    

@ QRLRVE:  << YDIPLEN  ; XDIPLEN  >> (   0.01269):     12.9305254191    

@ QRLRVE:  << ZDIPLEN  ; XDIPLEN  >> (   0.01269):   -7.035363863528E-15

@ QRLRVE: SINGLET SOLUTION FOR SYMMETRY    1  ( A  )    LABEL   XDIPLEN     FREQUENCY   0.190337D-01

@ QRLRVE:  << XDIPLEN  ; XDIPLEN  >> (   0.01903):     31.4350304575    

@ QRLRVE:  << YDIPLEN  ; XDIPLEN  >> (   0.01903):     12.9713019083    

@ QRLRVE:  << ZDIPLEN  ; XDIPLEN  >> (   0.01903):   -7.121379483841E-15

@ QRLRVE: SINGLET SOLUTION FOR SYMMETRY    1  ( A  )    LABEL   XDIPLEN     FREQUENCY   0.253783D-01

@ QRLRVE:  << XDIPLEN  ; XDIPLEN  >> (   0.02538):     31.4831710589    

@ QRLRVE:  << YDIPLEN  ; XDIPLEN  >> (   0.02538):     13.0288911093    

@ QRLRVE:  << ZDIPLEN  ; XDIPLEN  >> (   0.02538):   -7.244869022469E-15

@ QRLRVE: SINGLET SOLUTION FOR SYMMETRY    1  ( A  )    LABEL   XDIPLEN     FREQUENCY   0.317228D-01

@ QRLRVE:  << XDIPLEN  ; XDIPLEN  >> (   0.03172):     31.5455343958    

@ QRLRVE:  << YDIPLEN  ; XDIPLEN  >> (   0.03172):     13.1038100284    

@ QRLRVE:  << ZDIPLEN  ; XDIPLEN  >> (   0.03172):   -7.409065904878E-15

@ QRLRVE: SINGLET SOLUTION FOR SYMMETRY    1  ( A  )    LABEL   XDIPLEN     FREQUENCY   0.380674D-01

@ QRLRVE:  << XDIPLEN  ; XDIPLEN  >> (   0.03807):     31.6224853800    

@ QRLRVE:  << YDIPLEN  ; XDIPLEN  >> (   0.03807):     13.1967454913    

@ QRLRVE:  << ZDIPLEN  ; XDIPLEN  >> (   0.03807):   -7.618376978045E-15

@ QRLRVE: SINGLET SOLUTION FOR SYMMETRY    1  ( A  )    LABEL   XDIPLEN     FREQUENCY   0.444119D-01

@ QRLRVE:  << XDIPLEN  ; XDIPLEN  >> (   0.04441):     31.7144860507    

@ QRLRVE:  << YDIPLEN  ; XDIPLEN  >> (   0.04441):     13.3085722493    

@ QRLRVE:  << ZDIPLEN  ; XDIPLEN  >> (   0.04441):   -7.878593456533E-15

@ QRLRVE: SINGLET SOLUTION FOR SYMMETRY    1  ( A  )    LABEL   XDIPLEN     FREQUENCY   0.507565D-01

@ QRLRVE:  << XDIPLEN  ; XDIPLEN  >> (   0.05076):     31.8221064109    

@ QRLRVE:  << YDIPLEN  ; XDIPLEN  >> (   0.05076):     13.4403769719    

@ QRLRVE:  << ZDIPLEN  ; XDIPLEN  >> (   0.05076):   -8.197178081343E-15


 QRLRVE -- linear response calculation for symmetry  1  ( A  )
 QRLRVE -- operator label : YDIPLEN 
 QRLRVE -- operator spin  :   0
 QRLRVE -- frequencies :  0.000000  0.006345  0.012689  0.019034  0.025378
                          0.031723  0.038067  0.044412  0.050757



 ---  SOLVING SETS OF LINEAR EQUATIONS FOR LINEAR RESPONSE PROPERTIES ---

 Operator symmetry = 1  ( A  ); triplet =   F

RSPORT:    2 out of    9 new trial vectors linear dependent

 ** RSPCTL MICROITERATION NUMBER    1

       No.  Residual tot.,    conf., and orb.    Bnorm      Frequency 
      ----------------------------------------------------------------
         1    4.65034D+00  0.00D+00  4.65D+00  5.61D+00    0.00000D+00
         2    4.65204D+00  0.00D+00  4.65D+00  5.62D+00    6.34456D-03
         3    4.65717D+00  0.00D+00  4.66D+00  5.63D+00    1.26891D-02
         4    4.66574D+00  0.00D+00  4.67D+00  5.65D+00    1.90337D-02
         5    4.67780D+00  0.00D+00  4.68D+00  5.68D+00    2.53783D-02
         6    4.69342D+00  0.00D+00  4.69D+00  5.71D+00    3.17228D-02
         7    4.71268D+00  0.00D+00  4.71D+00  5.76D+00    3.80674D-02
         8    4.73569D+00  0.00D+00  4.74D+00  5.81D+00    4.44119D-02
         9    4.76257D+00  0.00D+00  4.76D+00  5.87D+00    5.07565D-02

 ** RSPCTL MICROITERATION NUMBER    2

       No.  Residual tot.,    conf., and orb.    Bnorm      Frequency 
      ----------------------------------------------------------------
         1    1.47762D+00  0.00D+00  1.48D+00  7.46D+00    0.00000D+00
         2    1.47891D+00  0.00D+00  1.48D+00  7.46D+00    6.34456D-03
         3    1.48278D+00  0.00D+00  1.48D+00  7.49D+00    1.26891D-02
         4    1.48928D+00  0.00D+00  1.49D+00  7.52D+00    1.90337D-02
         5    1.49848D+00  0.00D+00  1.50D+00  7.57D+00    2.53783D-02
         6    1.51048D+00  0.00D+00  1.51D+00  7.64D+00    3.17228D-02
         7    1.52542D+00  0.00D+00  1.53D+00  7.73D+00    3.80674D-02
         8    1.54347D+00  0.00D+00  1.54D+00  7.83D+00    4.44119D-02
         9    1.56485D+00  0.00D+00  1.56D+00  7.94D+00    5.07565D-02

 ** RSPCTL MICROITERATION NUMBER    3

       No.  Residual tot.,    conf., and orb.    Bnorm      Frequency 
      ----------------------------------------------------------------
         1    3.10746D-01  0.00D+00  3.11D-01  7.66D+00    0.00000D+00
         2    3.11092D-01  0.00D+00  3.11D-01  7.67D+00    6.34456D-03
         3    3.12131D-01  0.00D+00  3.12D-01  7.69D+00    1.26891D-02
         4    3.13881D-01  0.00D+00  3.14D-01  7.73D+00    1.90337D-02
         5    3.16365D-01  0.00D+00  3.16D-01  7.79D+00    2.53783D-02
         6    3.19621D-01  0.00D+00  3.20D-01  7.86D+00    3.17228D-02
         7    3.23695D-01  0.00D+00  3.24D-01  7.95D+00    3.80674D-02
         8    3.28652D-01  0.00D+00  3.29D-01  8.07D+00    4.44119D-02
         9    3.34567D-01  0.00D+00  3.35D-01  8.20D+00    5.07565D-02

 ** RSPCTL MICROITERATION NUMBER    4

       No.  Residual tot.,    conf., and orb.    Bnorm      Frequency 
      ----------------------------------------------------------------
         1    5.62336D-02  0.00D+00  5.62D-02  7.67D+00    0.00000D+00
         2    5.62831D-02  0.00D+00  5.63D-02  7.67D+00    6.34456D-03
         3    5.64326D-02  0.00D+00  5.64D-02  7.70D+00    1.26891D-02
         4    5.66858D-02  0.00D+00  5.67D-02  7.74D+00    1.90337D-02
         5    5.70484D-02  0.00D+00  5.70D-02  7.80D+00    2.53783D-02
         6    5.75293D-02  0.00D+00  5.75D-02  7.87D+00    3.17228D-02
         7    5.81403D-02  0.00D+00  5.81D-02  7.96D+00    3.80674D-02
         8    5.88973D-02  0.00D+00  5.89D-02  8.07D+00    4.44119D-02
         9    5.98209D-02  0.00D+00  5.98D-02  8.20D+00    5.07565D-02

 ** RSPCTL MICROITERATION NUMBER    5

       No.  Residual tot.,    conf., and orb.    Bnorm      Frequency 
      ----------------------------------------------------------------
         1    8.95723D-03  0.00D+00  8.96D-03  7.67D+00    0.00000D+00
         2    8.97424D-03  0.00D+00  8.97D-03  7.67D+00    6.34456D-03
         3    9.02571D-03  0.00D+00  9.03D-03  7.70D+00    1.26891D-02
         4    9.11301D-03  0.00D+00  9.11D-03  7.74D+00    1.90337D-02
         5    9.23849D-03  0.00D+00  9.24D-03  7.80D+00    2.53783D-02
         6    9.40552D-03  0.00D+00  9.41D-03  7.87D+00    3.17228D-02
         7    9.61867D-03  0.00D+00  9.62D-03  7.96D+00    3.80674D-02
         8    9.88383D-03  0.00D+00  9.88D-03  8.07D+00    4.44119D-02
         9    1.02085D-02  0.00D+00  1.02D-02  8.20D+00    5.07565D-02

 ** RSPCTL MICROITERATION NUMBER    6

       No.  Residual tot.,    conf., and orb.    Bnorm      Frequency 
      ----------------------------------------------------------------
         1    1.45103D-03  0.00D+00  1.45D-03  7.67D+00    0.00000D+00
         2    1.45408D-03  0.00D+00  1.45D-03  7.67D+00    6.34456D-03
         3    1.46330D-03  0.00D+00  1.46D-03  7.70D+00    1.26891D-02
         4    1.47889D-03  0.00D+00  1.48D-03  7.74D+00    1.90337D-02
         5    1.50116D-03  0.00D+00  1.50D-03  7.80D+00    2.53783D-02
         6    1.53061D-03  0.00D+00  1.53D-03  7.87D+00    3.17228D-02
         7    1.56787D-03  0.00D+00  1.57D-03  7.96D+00    3.80674D-02
         8    1.61378D-03  0.00D+00  1.61D-03  8.07D+00    4.44119D-02
         9    1.66941D-03  0.00D+00  1.67D-03  8.20D+00    5.07565D-02

 *** THE REQUESTED    9 SOLUTION VECTORS CONVERGED

 Convergence of RSP solution vectors, threshold = 1.00D-03
 ---------------------------------------------------------------
 (dimension of paired reduced space:  104)
 RSP solution vector no.    1; norm of residual   1.89D-04
 RSP solution vector no.    2; norm of residual   1.89D-04
 RSP solution vector no.    3; norm of residual   1.90D-04
 RSP solution vector no.    4; norm of residual   1.91D-04
 RSP solution vector no.    5; norm of residual   1.93D-04
 RSP solution vector no.    6; norm of residual   1.94D-04
 RSP solution vector no.    7; norm of residual   1.97D-04
 RSP solution vector no.    8; norm of residual   2.00D-04
 RSP solution vector no.    9; norm of residual   2.03D-04

 *** RSPCTL MICROITERATIONS CONVERGED

@ QRLRVE: SINGLET SOLUTION FOR SYMMETRY    1  ( A  )    LABEL   YDIPLEN     FREQUENCY   0.000000D+00

@ QRLRVE:  << XDIPLEN  ; YDIPLEN  >> (   0.00000):     12.8987635004    

@ QRLRVE:  << YDIPLEN  ; YDIPLEN  >> (   0.00000):     47.5365074531    

@ QRLRVE:  << ZDIPLEN  ; YDIPLEN  >> (   0.00000):    1.299260461838E-14

@ QRLRVE: SINGLET SOLUTION FOR SYMMETRY    1  ( A  )    LABEL   YDIPLEN     FREQUENCY   0.634456D-02

@ QRLRVE:  << XDIPLEN  ; YDIPLEN  >> (   0.00634):     12.9068489096    

@ QRLRVE:  << YDIPLEN  ; YDIPLEN  >> (   0.00634):     47.5571709961    

@ QRLRVE:  << ZDIPLEN  ; YDIPLEN  >> (   0.00634):    1.299911437653E-14

@ QRLRVE: SINGLET SOLUTION FOR SYMMETRY    1  ( A  )    LABEL   YDIPLEN     FREQUENCY   0.126891D-01

@ QRLRVE:  << XDIPLEN  ; YDIPLEN  >> (   0.01269):     12.9311754928    

@ QRLRVE:  << YDIPLEN  ; YDIPLEN  >> (   0.01269):     47.6193333989    

@ QRLRVE:  << ZDIPLEN  ; YDIPLEN  >> (   0.01269):    1.301875204340E-14

@ QRLRVE: SINGLET SOLUTION FOR SYMMETRY    1  ( A  )    LABEL   YDIPLEN     FREQUENCY   0.190337D-01

@ QRLRVE:  << XDIPLEN  ; YDIPLEN  >> (   0.01903):     12.9719560285    

@ QRLRVE:  << YDIPLEN  ; YDIPLEN  >> (   0.01903):     47.7235141585    

@ QRLRVE:  << ZDIPLEN  ; YDIPLEN  >> (   0.01903):    1.305184823420E-14

@ QRLRVE: SINGLET SOLUTION FOR SYMMETRY    1  ( A  )    LABEL   YDIPLEN     FREQUENCY   0.253783D-01

@ QRLRVE:  << XDIPLEN  ; YDIPLEN  >> (   0.02538):     13.0295509386    

@ QRLRVE:  << YDIPLEN  ; YDIPLEN  >> (   0.02538):     47.8705932277    

@ QRLRVE:  << ZDIPLEN  ; YDIPLEN  >> (   0.02538):    1.309897250586E-14

@ QRLRVE: SINGLET SOLUTION FOR SYMMETRY    1  ( A  )    LABEL   YDIPLEN     FREQUENCY   0.317228D-01

@ QRLRVE:  << XDIPLEN  ; YDIPLEN  >> (   0.03172):     13.1044772741    

@ QRLRVE:  << YDIPLEN  ; YDIPLEN  >> (   0.03172):     48.0618329317    

@ QRLRVE:  << ZDIPLEN  ; YDIPLEN  >> (   0.03172):    1.316096261351E-14

@ QRLRVE: SINGLET SOLUTION FOR SYMMETRY    1  ( A  )    LABEL   YDIPLEN     FREQUENCY   0.380674D-01

@ QRLRVE:  << XDIPLEN  ; YDIPLEN  >> (   0.03807):     13.1974219178    

@ QRLRVE:  << YDIPLEN  ; YDIPLEN  >> (   0.03807):     48.2989101754    

@ QRLRVE:  << ZDIPLEN  ; YDIPLEN  >> (   0.03807):    1.323896854482E-14

@ QRLRVE: SINGLET SOLUTION FOR SYMMETRY    1  ( A  )    LABEL   YDIPLEN     FREQUENCY   0.444119D-01

@ QRLRVE:  << XDIPLEN  ; YDIPLEN  >> (   0.04441):     13.3092596919    

@ QRLRVE:  << YDIPLEN  ; YDIPLEN  >> (   0.04441):     48.5839606165    

@ QRLRVE:  << ZDIPLEN  ; YDIPLEN  >> (   0.04441):    1.333451479747E-14

@ QRLRVE: SINGLET SOLUTION FOR SYMMETRY    1  ( A  )    LABEL   YDIPLEN     FREQUENCY   0.507565D-01

@ QRLRVE:  << XDIPLEN  ; YDIPLEN  >> (   0.05076):     13.4410773499    

@ QRLRVE:  << YDIPLEN  ; YDIPLEN  >> (   0.05076):     48.9196372032    

@ QRLRVE:  << ZDIPLEN  ; YDIPLEN  >> (   0.05076):    1.344958597564E-14


 QRLRVE -- linear response calculation for symmetry  1  ( A  )
 QRLRVE -- operator label : ZDIPLEN 
 QRLRVE -- operator spin  :   0
 QRLRVE -- frequencies :  0.000000  0.006345  0.012689  0.019034  0.025378
                          0.031723  0.038067  0.044412  0.050757



 ---  SOLVING SETS OF LINEAR EQUATIONS FOR LINEAR RESPONSE PROPERTIES ---

 Operator symmetry = 1  ( A  ); triplet =   F

RSPORT:    2 out of    9 new trial vectors linear dependent

 ** RSPCTL MICROITERATION NUMBER    1

       No.  Residual tot.,    conf., and orb.    Bnorm      Frequency 
      ----------------------------------------------------------------
         1    1.64804D+00  0.00D+00  1.65D+00  3.55D+00    0.00000D+00
         2    1.64823D+00  0.00D+00  1.65D+00  3.56D+00    6.34456D-03
         3    1.64879D+00  0.00D+00  1.65D+00  3.56D+00    1.26891D-02
         4    1.64974D+00  0.00D+00  1.65D+00  3.56D+00    1.90337D-02
         5    1.65106D+00  0.00D+00  1.65D+00  3.57D+00    2.53783D-02
         6    1.65277D+00  0.00D+00  1.65D+00  3.58D+00    3.17228D-02
         7    1.65487D+00  0.00D+00  1.65D+00  3.59D+00    3.80674D-02
         8    1.65737D+00  0.00D+00  1.66D+00  3.60D+00    4.44119D-02
         9    1.66028D+00  0.00D+00  1.66D+00  3.62D+00    5.07565D-02

 ** RSPCTL MICROITERATION NUMBER    2

       No.  Residual tot.,    conf., and orb.    Bnorm      Frequency 
      ----------------------------------------------------------------
         1    3.65130D-01  0.00D+00  3.65D-01  3.78D+00    0.00000D+00
         2    3.65392D-01  0.00D+00  3.65D-01  3.79D+00    6.34456D-03
         3    3.66190D-01  0.00D+00  3.66D-01  3.79D+00    1.26891D-02
         4    3.67553D-01  0.00D+00  3.68D-01  3.80D+00    1.90337D-02
         5    3.69536D-01  0.00D+00  3.70D-01  3.81D+00    2.53783D-02
         6    3.72226D-01  0.00D+00  3.72D-01  3.82D+00    3.17228D-02
         7    3.75747D-01  0.00D+00  3.76D-01  3.83D+00    3.80674D-02
         8    3.80283D-01  0.00D+00  3.80D-01  3.85D+00    4.44119D-02
         9    3.86104D-01  0.00D+00  3.86D-01  3.87D+00    5.07565D-02

 ** RSPCTL MICROITERATION NUMBER    3

       No.  Residual tot.,    conf., and orb.    Bnorm      Frequency 
      ----------------------------------------------------------------
         1    4.44153D-02  0.00D+00  4.44D-02  3.79D+00    0.00000D+00
         2    4.44681D-02  0.00D+00  4.45D-02  3.80D+00    6.34456D-03
         3    4.46313D-02  0.00D+00  4.46D-02  3.80D+00    1.26891D-02
         4    4.49199D-02  0.00D+00  4.49D-02  3.81D+00    1.90337D-02
         5    4.53621D-02  0.00D+00  4.54D-02  3.82D+00    2.53783D-02
         6    4.60049D-02  0.00D+00  4.60D-02  3.83D+00    3.17228D-02
         7    4.69236D-02  0.00D+00  4.69D-02  3.85D+00    3.80674D-02
         8    4.82403D-02  0.00D+00  4.82D-02  3.87D+00    4.44119D-02
         9    5.01550D-02  0.00D+00  5.02D-02  3.90D+00    5.07565D-02

 ** RSPCTL MICROITERATION NUMBER    4

       No.  Residual tot.,    conf., and orb.    Bnorm      Frequency 
      ----------------------------------------------------------------
         1    6.65557D-03  0.00D+00  6.66D-03  3.80D+00    0.00000D+00
         2    6.68191D-03  0.00D+00  6.68D-03  3.80D+00    6.34456D-03
         3    6.76333D-03  0.00D+00  6.76D-03  3.80D+00    1.26891D-02
         4    6.90735D-03  0.00D+00  6.91D-03  3.81D+00    1.90337D-02
         5    7.12765D-03  0.00D+00  7.13D-03  3.82D+00    2.53783D-02
         6    7.44614D-03  0.00D+00  7.45D-03  3.83D+00    3.17228D-02
         7    7.89635D-03  0.00D+00  7.90D-03  3.85D+00    3.80674D-02
         8    8.52917D-03  0.00D+00  8.53D-03  3.87D+00    4.44119D-02
         9    9.42277D-03  0.00D+00  9.42D-03  3.90D+00    5.07565D-02

 ** RSPCTL MICROITERATION NUMBER    5

       No.  Residual tot.,    conf., and orb.    Bnorm      Frequency 
      ----------------------------------------------------------------
         1    9.63121D-04  0.00D+00  9.63D-04  3.80D+00    0.00000D+00
         2    9.66175D-04  0.00D+00  9.66D-04  3.80D+00    6.34456D-03
         3    9.75812D-04  0.00D+00  9.76D-04  3.80D+00    1.26891D-02
         4    9.93545D-04  0.00D+00  9.94D-04  3.81D+00    1.90337D-02
         5    1.02218D-03  0.00D+00  1.02D-03  3.82D+00    2.53783D-02
         6    1.06631D-03  0.00D+00  1.07D-03  3.83D+00    3.17228D-02
         7    1.13303D-03  0.00D+00  1.13D-03  3.85D+00    3.80674D-02
         8    1.23320D-03  0.00D+00  1.23D-03  3.87D+00    4.44119D-02
         9    1.38329D-03  0.00D+00  1.38D-03  3.90D+00    5.07565D-02

 *** THE REQUESTED    9 SOLUTION VECTORS CONVERGED

 Convergence of RSP solution vectors, threshold = 1.00D-03
 ---------------------------------------------------------------
 (dimension of paired reduced space:   86)
 RSP solution vector no.    1; norm of residual   2.54D-04
 RSP solution vector no.    2; norm of residual   2.54D-04
 RSP solution vector no.    3; norm of residual   2.57D-04
 RSP solution vector no.    4; norm of residual   2.61D-04
 RSP solution vector no.    5; norm of residual   2.68D-04
 RSP solution vector no.    6; norm of residual   2.78D-04
 RSP solution vector no.    7; norm of residual   2.94D-04
 RSP solution vector no.    8; norm of residual   3.18D-04
 RSP solution vector no.    9; norm of residual   3.54D-04

 *** RSPCTL MICROITERATIONS CONVERGED

@ QRLRVE: SINGLET SOLUTION FOR SYMMETRY    1  ( A  )    LABEL   ZDIPLEN     FREQUENCY   0.000000D+00

@ QRLRVE:  << XDIPLEN  ; ZDIPLEN  >> (   0.00000):   -6.425224198469E-15

@ QRLRVE:  << YDIPLEN  ; ZDIPLEN  >> (   0.00000):    1.010479472047E-14

@ QRLRVE:  << ZDIPLEN  ; ZDIPLEN  >> (   0.00000):     21.4180126749    

@ QRLRVE: SINGLET SOLUTION FOR SYMMETRY    1  ( A  )    LABEL   ZDIPLEN     FREQUENCY   0.634456D-02

@ QRLRVE:  << XDIPLEN  ; ZDIPLEN  >> (   0.00634):   -6.226366261983E-15

@ QRLRVE:  << YDIPLEN  ; ZDIPLEN  >> (   0.00634):    1.031779623478E-14

@ QRLRVE:  << ZDIPLEN  ; ZDIPLEN  >> (   0.00634):     21.4207421775    

@ QRLRVE: SINGLET SOLUTION FOR SYMMETRY    1  ( A  )    LABEL   ZDIPLEN     FREQUENCY   0.126891D-01

@ QRLRVE:  << XDIPLEN  ; ZDIPLEN  >> (   0.01269):   -5.618368196528E-15

@ QRLRVE:  << YDIPLEN  ; ZDIPLEN  >> (   0.01269):    1.096916350449E-14

@ QRLRVE:  << ZDIPLEN  ; ZDIPLEN  >> (   0.01269):     21.4289468465    

@ QRLRVE: SINGLET SOLUTION FOR SYMMETRY    1  ( A  )    LABEL   ZDIPLEN     FREQUENCY   0.190337D-01

@ QRLRVE:  << XDIPLEN  ; ZDIPLEN  >> (   0.01903):   -4.565552062697E-15

@ QRLRVE:  << YDIPLEN  ; ZDIPLEN  >> (   0.01903):    1.209751489845E-14

@ QRLRVE:  << ZDIPLEN  ; ZDIPLEN  >> (   0.01903):     21.4426764741    

@ QRLRVE: SINGLET SOLUTION FOR SYMMETRY    1  ( A  )    LABEL   ZDIPLEN     FREQUENCY   0.253783D-01

@ QRLRVE:  << XDIPLEN  ; ZDIPLEN  >> (   0.02538):   -3.003443397534E-15

@ QRLRVE:  << YDIPLEN  ; ZDIPLEN  >> (   0.02538):    1.377267186536E-14

@ QRLRVE:  << ZDIPLEN  ; ZDIPLEN  >> (   0.02538):     21.4620187041    

@ QRLRVE: SINGLET SOLUTION FOR SYMMETRY    1  ( A  )    LABEL   ZDIPLEN     FREQUENCY   0.317228D-01

@ QRLRVE:  << XDIPLEN  ; ZDIPLEN  >> (   0.03172):   -8.299813255407E-16

@ QRLRVE:  << YDIPLEN  ; ZDIPLEN  >> (   0.03172):    1.610523316956E-14

@ QRLRVE:  << ZDIPLEN  ; ZDIPLEN  >> (   0.03172):     21.4871071653    

@ QRLRVE: SINGLET SOLUTION FOR SYMMETRY    1  ( A  )    LABEL   ZDIPLEN     FREQUENCY   0.380674D-01

@ QRLRVE:  << XDIPLEN  ; ZDIPLEN  >> (   0.03807):    2.109868436483E-15

@ QRLRVE:  << YDIPLEN  ; ZDIPLEN  >> (   0.03807):    1.926333827980E-14

@ QRLRVE:  << ZDIPLEN  ; ZDIPLEN  >> (   0.03807):     21.5181356362    

@ QRLRVE: SINGLET SOLUTION FOR SYMMETRY    1  ( A  )    LABEL   ZDIPLEN     FREQUENCY   0.444119D-01

@ QRLRVE:  << XDIPLEN  ; ZDIPLEN  >> (   0.04441):    6.050774692082E-15

@ QRLRVE:  << YDIPLEN  ; ZDIPLEN  >> (   0.04441):    2.350171967482E-14

@ QRLRVE:  << ZDIPLEN  ; ZDIPLEN  >> (   0.04441):     21.5553824538    

@ QRLRVE: SINGLET SOLUTION FOR SYMMETRY    1  ( A  )    LABEL   ZDIPLEN     FREQUENCY   0.507565D-01

@ QRLRVE:  << XDIPLEN  ; ZDIPLEN  >> (   0.05076):    1.135449585491E-14

@ QRLRVE:  << YDIPLEN  ; ZDIPLEN  >> (   0.05076):    2.921342489069E-14

@ QRLRVE:  << ZDIPLEN  ; ZDIPLEN  >> (   0.05076):     21.5992537429    
 
[...]
@ B-freq = 0.019034  C-freq = 0.019034     beta(Y;Z,Y) =     -0.00000000
@ B-freq = 0.019034  C-freq = 0.019034     beta(Z;Z,Y) =     37.16172785
@ B-freq = 0.025378  C-freq = 0.019034     beta(X;Z,Y) =      0.00000000
@ B-freq = 0.025378  C-freq = 0.019034     beta(Y;Z,Y) =     -0.00000000
@ B-freq = 0.025378  C-freq = 0.019034     beta(Z;Z,Y) =     37.18558818
@ B-freq = 0.000000  C-freq = 0.025378     beta(X;X,Y) = beta(X,Y,X)
@ B-freq = 0.000000  C-freq = 0.025378     beta(Y;X,Y) = beta(Y,Y,X)
@ B-freq = 0.000000  C-freq = 0.025378     beta(Z;X,Y) = beta(Z,Y,X)
@ B-freq = 0.006345  C-freq = 0.025378     beta(X;X,Y) = beta(X,Y,X)
@ B-freq = 0.006345  C-freq = 0.025378     beta(Y;X,Y) = beta(Y,Y,X)
@ B-freq = 0.006345  C-freq = 0.025378     beta(Z;X,Y) = beta(Z,Y,X)
@ B-freq = 0.012689  C-freq = 0.025378     beta(X;X,Y) = beta(X,Y,X)
@ B-freq = 0.012689  C-freq = 0.025378     beta(Y;X,Y) = beta(Y,Y,X)
@ B-freq = 0.012689  C-freq = 0.025378     beta(Z;X,Y) = beta(Z,Y,X)
@ B-freq = 0.019034  C-freq = 0.025378     beta(X;X,Y) = beta(X,Y,X)
@ B-freq = 0.019034  C-freq = 0.025378     beta(Y;X,Y) = beta(Y,Y,X)
@ B-freq = 0.019034  C-freq = 0.025378     beta(Z;X,Y) = beta(Z,Y,X)
@ B-freq = 0.025378  C-freq = 0.025378     beta(X;X,Y) = beta(X,Y,X)
@ B-freq = 0.025378  C-freq = 0.025378     beta(Y;X,Y) = beta(Y,Y,X)
@ B-freq = 0.025378  C-freq = 0.025378     beta(Z;X,Y) = beta(Z,Y,X)
@ B-freq = 0.000000  C-freq = 0.025378     beta(X;Y,Y) = beta(X,Y,Y)
@ B-freq = 0.000000  C-freq = 0.025378     beta(Y;Y,Y) = beta(Y,Y,Y)
@ B-freq = 0.000000  C-freq = 0.025378     beta(Z;Y,Y) = beta(Z,Y,Y)
@ B-freq = 0.006345  C-freq = 0.025378     beta(X;Y,Y) = beta(X,Y,Y)
@ B-freq = 0.006345  C-freq = 0.025378     beta(Y;Y,Y) = beta(Y,Y,Y)
@ B-freq = 0.006345  C-freq = 0.025378     beta(Z;Y,Y) = beta(Z,Y,Y)
@ B-freq = 0.012689  C-freq = 0.025378     beta(X;Y,Y) = beta(X,Y,Y)
@ B-freq = 0.012689  C-freq = 0.025378     beta(Y;Y,Y) = beta(Y,Y,Y)
@ B-freq = 0.012689  C-freq = 0.025378     beta(Z;Y,Y) = beta(Z,Y,Y)
@ B-freq = 0.019034  C-freq = 0.025378     beta(X;Y,Y) = beta(X,Y,Y)
@ B-freq = 0.019034  C-freq = 0.025378     beta(Y;Y,Y) = beta(Y,Y,Y)
@ B-freq = 0.019034  C-freq = 0.025378     beta(Z;Y,Y) = beta(Z,Y,Y)
@ B-freq = 0.025378  C-freq = 0.025378     beta(X;Y,Y) =      0.14268850
@ B-freq = 0.025378  C-freq = 0.025378     beta(Y;Y,Y) =     58.18697645
@ B-freq = 0.025378  C-freq = 0.025378     beta(Z;Y,Y) =     -0.00000000
@ B-freq = 0.000000  C-freq = 0.025378     beta(X;Z,Y) =      0.00000000
@ B-freq = 0.000000  C-freq = 0.025378     beta(Y;Z,Y) =     -0.00000000
@ B-freq = 0.000000  C-freq = 0.025378     beta(Z;Z,Y) =     37.31505543
@ B-freq = 0.006345  C-freq = 0.025378     beta(X;Z,Y) =      0.00000000
@ B-freq = 0.006345  C-freq = 0.025378     beta(Y;Z,Y) =     -0.00000000
@ B-freq = 0.006345  C-freq = 0.025378     beta(Z;Z,Y) =     37.33777057
@ B-freq = 0.012689  C-freq = 0.025378     beta(X;Z,Y) =      0.00000000
@ B-freq = 0.012689  C-freq = 0.025378     beta(Y;Z,Y) =     -0.00000000
@ B-freq = 0.012689  C-freq = 0.025378     beta(Z;Z,Y) =     37.36417305
@ B-freq = 0.019034  C-freq = 0.025378     beta(X;Z,Y) =      0.00000000
@ B-freq = 0.019034  C-freq = 0.025378     beta(Y;Z,Y) =     -0.00000000
@ B-freq = 0.019034  C-freq = 0.025378     beta(Z;Z,Y) =     37.38754742
@ B-freq = 0.025378  C-freq = 0.025378     beta(X;Z,Y) =      0.00000000
@ B-freq = 0.025378  C-freq = 0.025378     beta(Y;Z,Y) =     -0.00000000
@ B-freq = 0.025378  C-freq = 0.025378     beta(Z;Z,Y) =     37.39683736
@ B-freq = 0.000000  C-freq = 0.000000     beta(X;X,Z) = beta(Z,X,X)
@ B-freq = 0.000000  C-freq = 0.000000     beta(Y;X,Z) = beta(Z,Y,X)
@ B-freq = 0.000000  C-freq = 0.000000     beta(Z;X,Z) = beta(Z,Z,X)
@ B-freq = 0.006345  C-freq = 0.000000     beta(X;X,Z) = beta(X,Z,X)
@ B-freq = 0.006345  C-freq = 0.000000     beta(Y;X,Z) = beta(Y,Z,X)
@ B-freq = 0.006345  C-freq = 0.000000     beta(Z;X,Z) = beta(Z,Z,X)
@ B-freq = 0.012689  C-freq = 0.000000     beta(X;X,Z) = beta(X,Z,X)
@ B-freq = 0.012689  C-freq = 0.000000     beta(Y;X,Z) = beta(Y,Z,X)
@ B-freq = 0.012689  C-freq = 0.000000     beta(Z;X,Z) = beta(Z,Z,X)
@ B-freq = 0.019034  C-freq = 0.000000     beta(X;X,Z) = beta(X,Z,X)
@ B-freq = 0.019034  C-freq = 0.000000     beta(Y;X,Z) = beta(Y,Z,X)
@ B-freq = 0.019034  C-freq = 0.000000     beta(Z;X,Z) = beta(Z,Z,X)
@ B-freq = 0.025378  C-freq = 0.000000     beta(X;X,Z) = beta(X,Z,X)
@ B-freq = 0.025378  C-freq = 0.000000     beta(Y;X,Z) = beta(Y,Z,X)
@ B-freq = 0.025378  C-freq = 0.000000     beta(Z;X,Z) = beta(Z,Z,X)
@ B-freq = 0.000000  C-freq = 0.000000     beta(X;Y,Z) = beta(Z,Y,X)
@ B-freq = 0.000000  C-freq = 0.000000     beta(Y;Y,Z) = beta(Z,Y,Y)
@ B-freq = 0.000000  C-freq = 0.000000     beta(Z;Y,Z) = beta(Z,Z,Y)
@ B-freq = 0.006345  C-freq = 0.000000     beta(X;Y,Z) = beta(X,Z,Y)
@ B-freq = 0.006345  C-freq = 0.000000     beta(Y;Y,Z) = beta(Y,Z,Y)
@ B-freq = 0.006345  C-freq = 0.000000     beta(Z;Y,Z) = beta(Z,Z,Y)
@ B-freq = 0.012689  C-freq = 0.000000     beta(X;Y,Z) = beta(X,Z,Y)
@ B-freq = 0.012689  C-freq = 0.000000     beta(Y;Y,Z) = beta(Y,Z,Y)
@ B-freq = 0.012689  C-freq = 0.000000     beta(Z;Y,Z) = beta(Z,Z,Y)
@ B-freq = 0.019034  C-freq = 0.000000     beta(X;Y,Z) = beta(X,Z,Y)
@ B-freq = 0.019034  C-freq = 0.000000     beta(Y;Y,Z) = beta(Y,Z,Y)
@ B-freq = 0.019034  C-freq = 0.000000     beta(Z;Y,Z) = beta(Z,Z,Y)
@ B-freq = 0.025378  C-freq = 0.000000     beta(X;Y,Z) = beta(X,Z,Y)
@ B-freq = 0.025378  C-freq = 0.000000     beta(Y;Y,Z) = beta(Y,Z,Y)
@ B-freq = 0.025378  C-freq = 0.000000     beta(Z;Y,Z) = beta(Z,Z,Y)
@ B-freq = 0.000000  C-freq = 0.000000     beta(X;Z,Z) = beta(Z,Z,X)
@ B-freq = 0.000000  C-freq = 0.000000     beta(Y;Z,Z) = beta(Z,Z,Y)
@ B-freq = 0.000000  C-freq = 0.000000     beta(X;Z,Z) =     19.40597253
@ B-freq = 0.000000  C-freq = 0.000000     beta(Y;Z,Z) =     36.78905667
@ B-freq = 0.000000  C-freq = 0.000000     beta(Z;Z,Z) =     -0.00000000
@ B-freq = 0.006345  C-freq = 0.000000     beta(X;Z,Z) =     19.42196722
@ B-freq = 0.006345  C-freq = 0.000000     beta(Y;Z,Z) =     36.82177936
@ B-freq = 0.006345  C-freq = 0.000000     beta(Z;Z,Z) =     -0.00000000
@ B-freq = 0.012689  C-freq = 0.000000     beta(X;Z,Z) =     19.47003114
@ B-freq = 0.012689  C-freq = 0.000000     beta(Y;Z,Z) =     36.92007811
@ B-freq = 0.012689  C-freq = 0.000000     beta(Z;Z,Z) =     -0.00000000
@ B-freq = 0.019034  C-freq = 0.000000     beta(X;Z,Z) =     19.55039738
@ B-freq = 0.019034  C-freq = 0.000000     beta(Y;Z,Z) =     37.08432369
@ B-freq = 0.019034  C-freq = 0.000000     beta(Z;Z,Z) =     -0.00000000
@ B-freq = 0.025378  C-freq = 0.000000     beta(X;Z,Z) =     19.66343005
@ B-freq = 0.025378  C-freq = 0.000000     beta(Y;Z,Z) =     37.31505643
@ B-freq = 0.025378  C-freq = 0.000000     beta(Z;Z,Z) =     -0.00000000
@ B-freq = 0.000000  C-freq = 0.006345     beta(X;X,Z) = beta(X,Z,X)
@ B-freq = 0.000000  C-freq = 0.006345     beta(Y;X,Z) = beta(Y,Z,X)
@ B-freq = 0.000000  C-freq = 0.006345     beta(Z;X,Z) = beta(Z,Z,X)
@ B-freq = 0.006345  C-freq = 0.006345     beta(X;X,Z) = beta(X,Z,X)
@ B-freq = 0.006345  C-freq = 0.006345     beta(Y;X,Z) = beta(Y,Z,X)
@ B-freq = 0.006345  C-freq = 0.006345     beta(Z;X,Z) = beta(Z,Z,X)
@ B-freq = 0.012689  C-freq = 0.006345     beta(X;X,Z) = beta(X,Z,X)
@ B-freq = 0.012689  C-freq = 0.006345     beta(Y;X,Z) = beta(Y,Z,X)
@ B-freq = 0.012689  C-freq = 0.006345     beta(Z;X,Z) = beta(Z,Z,X)
@ B-freq = 0.019034  C-freq = 0.006345     beta(X;X,Z) = beta(X,Z,X)
@ B-freq = 0.019034  C-freq = 0.006345     beta(Y;X,Z) = beta(Y,Z,X)
@ B-freq = 0.019034  C-freq = 0.006345     beta(Z;X,Z) = beta(Z,Z,X)
@ B-freq = 0.025378  C-freq = 0.006345     beta(X;X,Z) = beta(X,Z,X)
@ B-freq = 0.025378  C-freq = 0.006345     beta(Y;X,Z) = beta(Y,Z,X)
@ B-freq = 0.025378  C-freq = 0.006345     beta(Z;X,Z) = beta(Z,Z,X)
@ B-freq = 0.000000  C-freq = 0.006345     beta(X;Y,Z) = beta(X,Z,Y)
@ B-freq = 0.000000  C-freq = 0.006345     beta(Y;Y,Z) = beta(Y,Z,Y)
@ B-freq = 0.000000  C-freq = 0.006345     beta(Z;Y,Z) = beta(Z,Z,Y)
@ B-freq = 0.006345  C-freq = 0.006345     beta(X;Y,Z) = beta(X,Z,Y)
@ B-freq = 0.006345  C-freq = 0.006345     beta(Y;Y,Z) = beta(Y,Z,Y)
@ B-freq = 0.006345  C-freq = 0.006345     beta(Z;Y,Z) = beta(Z,Z,Y)
@ B-freq = 0.012689  C-freq = 0.006345     beta(X;Y,Z) = beta(X,Z,Y)
@ B-freq = 0.012689  C-freq = 0.006345     beta(Y;Y,Z) = beta(Y,Z,Y)
@ B-freq = 0.012689  C-freq = 0.006345     beta(Z;Y,Z) = beta(Z,Z,Y)
@ B-freq = 0.019034  C-freq = 0.006345     beta(X;Y,Z) = beta(X,Z,Y)
@ B-freq = 0.019034  C-freq = 0.006345     beta(Y;Y,Z) = beta(Y,Z,Y)
@ B-freq = 0.019034  C-freq = 0.006345     beta(Z;Y,Z) = beta(Z,Z,Y)
@ B-freq = 0.025378  C-freq = 0.006345     beta(X;Y,Z) = beta(X,Z,Y)
@ B-freq = 0.025378  C-freq = 0.006345     beta(Y;Y,Z) = beta(Y,Z,Y)
@ B-freq = 0.025378  C-freq = 0.006345     beta(Z;Y,Z) = beta(Z,Z,Y)
@ B-freq = 0.000000  C-freq = 0.006345     beta(X;Z,Z) = beta(X,Z,Z)
@ B-freq = 0.000000  C-freq = 0.006345     beta(Y;Z,Z) = beta(Y,Z,Z)
@ B-freq = 0.000000  C-freq = 0.006345     beta(Z;Z,Z) = beta(Z,Z,Z)
@ B-freq = 0.006345  C-freq = 0.006345     beta(X;Z,Z) =     19.46623723
@ B-freq = 0.006345  C-freq = 0.006345     beta(Y;Z,Z) =     36.91437260
@ B-freq = 0.006345  C-freq = 0.006345     beta(Z;Z,Z) =     -0.00000000
@ B-freq = 0.012689  C-freq = 0.006345     beta(X;Z,Z) =     19.54297748
@ B-freq = 0.012689  C-freq = 0.006345     beta(Y;Z,Z) =     37.07344695
@ B-freq = 0.012689  C-freq = 0.006345     beta(Z;Z,Z) =     -0.00000000
@ B-freq = 0.019034  C-freq = 0.006345     beta(X;Z,Z) =     19.65271048
@ B-freq = 0.019034  C-freq = 0.006345     beta(Y;Z,Z) =     37.30002153
@ B-freq = 0.019034  C-freq = 0.006345     beta(Z;Z,Z) =     -0.00000000
@ B-freq = 0.025378  C-freq = 0.006345     beta(X;Z,Z) =     19.79610740
@ B-freq = 0.025378  C-freq = 0.006345     beta(Y;Z,Z) =     37.59532256
@ B-freq = 0.025378  C-freq = 0.006345     beta(Z;Z,Z) =     -0.00000000
@ B-freq = 0.000000  C-freq = 0.012689     beta(X;X,Z) = beta(X,Z,X)
@ B-freq = 0.000000  C-freq = 0.012689     beta(Y;X,Z) = beta(Y,Z,X)
@ B-freq = 0.000000  C-freq = 0.012689     beta(Z;X,Z) = beta(Z,Z,X)
@ B-freq = 0.006345  C-freq = 0.012689     beta(X;X,Z) = beta(X,Z,X)
@ B-freq = 0.006345  C-freq = 0.012689     beta(Y;X,Z) = beta(Y,Z,X)
@ B-freq = 0.006345  C-freq = 0.012689     beta(Z;X,Z) = beta(Z,Z,X)
@ B-freq = 0.012689  C-freq = 0.012689     beta(X;X,Z) = beta(X,Z,X)
@ B-freq = 0.012689  C-freq = 0.012689     beta(Y;X,Z) = beta(Y,Z,X)
@ B-freq = 0.012689  C-freq = 0.012689     beta(Z;X,Z) = beta(Z,Z,X)
@ B-freq = 0.019034  C-freq = 0.012689     beta(X;X,Z) = beta(X,Z,X)
@ B-freq = 0.019034  C-freq = 0.012689     beta(Y;X,Z) = beta(Y,Z,X)
@ B-freq = 0.019034  C-freq = 0.012689     beta(Z;X,Z) = beta(Z,Z,X)
@ B-freq = 0.025378  C-freq = 0.012689     beta(X;X,Z) = beta(X,Z,X)
@ B-freq = 0.025378  C-freq = 0.012689     beta(Y;X,Z) = beta(Y,Z,X)
@ B-freq = 0.025378  C-freq = 0.012689     beta(Z;X,Z) = beta(Z,Z,X)
@ B-freq = 0.000000  C-freq = 0.012689     beta(X;Y,Z) = beta(X,Z,Y)
@ B-freq = 0.000000  C-freq = 0.012689     beta(Y;Y,Z) = beta(Y,Z,Y)
@ B-freq = 0.000000  C-freq = 0.012689     beta(Z;Y,Z) = beta(Z,Z,Y)
@ B-freq = 0.006345  C-freq = 0.012689     beta(X;Y,Z) = beta(X,Z,Y)
@ B-freq = 0.006345  C-freq = 0.012689     beta(Y;Y,Z) = beta(Y,Z,Y)
@ B-freq = 0.006345  C-freq = 0.012689     beta(Z;Y,Z) = beta(Z,Z,Y)
@ B-freq = 0.012689  C-freq = 0.012689     beta(X;Y,Z) = beta(X,Z,Y)
@ B-freq = 0.012689  C-freq = 0.012689     beta(Y;Y,Z) = beta(Y,Z,Y)
@ B-freq = 0.012689  C-freq = 0.012689     beta(Z;Y,Z) = beta(Z,Z,Y)
@ B-freq = 0.019034  C-freq = 0.012689     beta(X;Y,Z) = beta(X,Z,Y)
@ B-freq = 0.019034  C-freq = 0.012689     beta(Y;Y,Z) = beta(Y,Z,Y)
@ B-freq = 0.019034  C-freq = 0.012689     beta(Z;Y,Z) = beta(Z,Z,Y)
@ B-freq = 0.025378  C-freq = 0.012689     beta(X;Y,Z) = beta(X,Z,Y)
@ B-freq = 0.025378  C-freq = 0.012689     beta(Y;Y,Z) = beta(Y,Z,Y)
@ B-freq = 0.025378  C-freq = 0.012689     beta(Z;Y,Z) = beta(Z,Z,Y)
@ B-freq = 0.000000  C-freq = 0.012689     beta(X;Z,Z) = beta(X,Z,Z)
@ B-freq = 0.000000  C-freq = 0.012689     beta(Y;Z,Z) = beta(Y,Z,Z)
@ B-freq = 0.000000  C-freq = 0.012689     beta(Z;Z,Z) = beta(Z,Z,Z)
@ B-freq = 0.006345  C-freq = 0.012689     beta(X;Z,Z) = beta(X,Z,Z)
@ B-freq = 0.006345  C-freq = 0.012689     beta(Y;Z,Z) = beta(Y,Z,Z)
@ B-freq = 0.006345  C-freq = 0.012689     beta(Z;Z,Z) = beta(Z,Z,Z)
@ B-freq = 0.012689  C-freq = 0.012689     beta(X;Z,Z) =     19.64905019
@ B-freq = 0.012689  C-freq = 0.012689     beta(Y;Z,Z) =     37.29478809
@ B-freq = 0.012689  C-freq = 0.012689     beta(Z;Z,Z) =     -0.00000000
@ B-freq = 0.019034  C-freq = 0.012689     beta(X;Z,Z) =     19.78907685
@ B-freq = 0.019034  C-freq = 0.012689     beta(Y;Z,Z) =     37.58580629
@ B-freq = 0.019034  C-freq = 0.012689     beta(Z;Z,Z) =     -0.00000000
@ B-freq = 0.025378  C-freq = 0.012689     beta(X;Z,Z) =     19.96405802
@ B-freq = 0.025378  C-freq = 0.012689     beta(Y;Z,Z) =     37.94846707
@ B-freq = 0.025378  C-freq = 0.012689     beta(Z;Z,Z) =     -0.00000000
@ B-freq = 0.000000  C-freq = 0.019034     beta(X;X,Z) = beta(X,Z,X)
@ B-freq = 0.000000  C-freq = 0.019034     beta(Y;X,Z) = beta(Y,Z,X)
@ B-freq = 0.000000  C-freq = 0.019034     beta(Z;X,Z) = beta(Z,Z,X)
@ B-freq = 0.006345  C-freq = 0.019034     beta(X;X,Z) = beta(X,Z,X)
@ B-freq = 0.006345  C-freq = 0.019034     beta(Y;X,Z) = beta(Y,Z,X)
@ B-freq = 0.006345  C-freq = 0.019034     beta(Z;X,Z) = beta(Z,Z,X)
@ B-freq = 0.012689  C-freq = 0.019034     beta(X;X,Z) = beta(X,Z,X)
@ B-freq = 0.012689  C-freq = 0.019034     beta(Y;X,Z) = beta(Y,Z,X)
@ B-freq = 0.012689  C-freq = 0.019034     beta(Z;X,Z) = beta(Z,Z,X)
@ B-freq = 0.019034  C-freq = 0.019034     beta(X;X,Z) = beta(X,Z,X)
@ B-freq = 0.019034  C-freq = 0.019034     beta(Y;X,Z) = beta(Y,Z,X)
@ B-freq = 0.019034  C-freq = 0.019034     beta(Z;X,Z) = beta(Z,Z,X)
@ B-freq = 0.025378  C-freq = 0.019034     beta(X;X,Z) = beta(X,Z,X)
@ B-freq = 0.025378  C-freq = 0.019034     beta(Y;X,Z) = beta(Y,Z,X)
@ B-freq = 0.025378  C-freq = 0.019034     beta(Z;X,Z) = beta(Z,Z,X)
@ B-freq = 0.000000  C-freq = 0.019034     beta(X;Y,Z) = beta(X,Z,Y)
@ B-freq = 0.000000  C-freq = 0.019034     beta(Y;Y,Z) = beta(Y,Z,Y)
@ B-freq = 0.000000  C-freq = 0.019034     beta(Z;Y,Z) = beta(Z,Z,Y)
@ B-freq = 0.006345  C-freq = 0.019034     beta(X;Y,Z) = beta(X,Z,Y)
@ B-freq = 0.006345  C-freq = 0.019034     beta(Y;Y,Z) = beta(Y,Z,Y)
@ B-freq = 0.006345  C-freq = 0.019034     beta(Z;Y,Z) = beta(Z,Z,Y)
@ B-freq = 0.012689  C-freq = 0.019034     beta(X;Y,Z) = beta(X,Z,Y)
@ B-freq = 0.012689  C-freq = 0.019034     beta(Y;Y,Z) = beta(Y,Z,Y)
@ B-freq = 0.012689  C-freq = 0.019034     beta(Z;Y,Z) = beta(Z,Z,Y)
@ B-freq = 0.019034  C-freq = 0.019034     beta(X;Y,Z) = beta(X,Z,Y)
@ B-freq = 0.019034  C-freq = 0.019034     beta(Y;Y,Z) = beta(Y,Z,Y)
@ B-freq = 0.019034  C-freq = 0.019034     beta(Z;Y,Z) = beta(Z,Z,Y)
@ B-freq = 0.025378  C-freq = 0.019034     beta(X;Y,Z) = beta(X,Z,Y)
@ B-freq = 0.025378  C-freq = 0.019034     beta(Y;Y,Z) = beta(Y,Z,Y)
@ B-freq = 0.025378  C-freq = 0.019034     beta(Z;Y,Z) = beta(Z,Z,Y)
@ B-freq = 0.000000  C-freq = 0.019034     beta(X;Z,Z) = beta(X,Z,Z)
@ B-freq = 0.000000  C-freq = 0.019034     beta(Y;Z,Z) = beta(Y,Z,Z)
@ B-freq = 0.000000  C-freq = 0.019034     beta(Z;Z,Z) = beta(Z,Z,Z)
@ B-freq = 0.006345  C-freq = 0.019034     beta(X;Z,Z) = beta(X,Z,Z)
@ B-freq = 0.006345  C-freq = 0.019034     beta(Y;Z,Z) = beta(Y,Z,Z)
@ B-freq = 0.006345  C-freq = 0.019034     beta(Z;Z,Z) = beta(Z,Z,Z)
@ B-freq = 0.012689  C-freq = 0.019034     beta(X;Z,Z) = beta(X,Z,Z)
@ B-freq = 0.012689  C-freq = 0.019034     beta(Y;Z,Z) = beta(Y,Z,Z)
@ B-freq = 0.012689  C-freq = 0.019034     beta(Z;Z,Z) = beta(Z,Z,Z)
@ B-freq = 0.019034  C-freq = 0.019034     beta(X;Z,Z) =     19.96065264
@ B-freq = 0.019034  C-freq = 0.019034     beta(Y;Z,Z) =     37.94412490
@ B-freq = 0.019034  C-freq = 0.019034     beta(Z;Z,Z) =     -0.00000000
@ B-freq = 0.025378  C-freq = 0.019034     beta(X;Z,Z) =     20.16879941
@ B-freq = 0.025378  C-freq = 0.019034     beta(Y;Z,Z) =     38.37775798
@ B-freq = 0.025378  C-freq = 0.019034     beta(Z;Z,Z) =     -0.00000000
@ B-freq = 0.000000  C-freq = 0.025378     beta(X;X,Z) = beta(X,Z,X)
@ B-freq = 0.000000  C-freq = 0.025378     beta(Y;X,Z) = beta(Y,Z,X)
@ B-freq = 0.000000  C-freq = 0.025378     beta(Z;X,Z) = beta(Z,Z,X)
@ B-freq = 0.006345  C-freq = 0.025378     beta(X;X,Z) = beta(X,Z,X)
@ B-freq = 0.006345  C-freq = 0.025378     beta(Y;X,Z) = beta(Y,Z,X)
@ B-freq = 0.006345  C-freq = 0.025378     beta(Z;X,Z) = beta(Z,Z,X)
@ B-freq = 0.012689  C-freq = 0.025378     beta(X;X,Z) = beta(X,Z,X)
@ B-freq = 0.012689  C-freq = 0.025378     beta(Y;X,Z) = beta(Y,Z,X)
@ B-freq = 0.012689  C-freq = 0.025378     beta(Z;X,Z) = beta(Z,Z,X)
@ B-freq = 0.019034  C-freq = 0.025378     beta(X;X,Z) = beta(X,Z,X)
@ B-freq = 0.019034  C-freq = 0.025378     beta(Y;X,Z) = beta(Y,Z,X)
@ B-freq = 0.019034  C-freq = 0.025378     beta(Z;X,Z) = beta(Z,Z,X)
@ B-freq = 0.025378  C-freq = 0.025378     beta(X;X,Z) = beta(X,Z,X)
@ B-freq = 0.025378  C-freq = 0.025378     beta(Y;X,Z) = beta(Y,Z,X)
@ B-freq = 0.025378  C-freq = 0.025378     beta(Z;X,Z) = beta(Z,Z,X)
@ B-freq = 0.000000  C-freq = 0.025378     beta(X;Y,Z) = beta(X,Z,Y)
@ B-freq = 0.000000  C-freq = 0.025378     beta(Y;Y,Z) = beta(Y,Z,Y)
@ B-freq = 0.000000  C-freq = 0.025378     beta(Z;Y,Z) = beta(Z,Z,Y)
@ B-freq = 0.006345  C-freq = 0.025378     beta(X;Y,Z) = beta(X,Z,Y)
@ B-freq = 0.006345  C-freq = 0.025378     beta(Y;Y,Z) = beta(Y,Z,Y)
@ B-freq = 0.006345  C-freq = 0.025378     beta(Z;Y,Z) = beta(Z,Z,Y)
@ B-freq = 0.012689  C-freq = 0.025378     beta(X;Y,Z) = beta(X,Z,Y)
@ B-freq = 0.012689  C-freq = 0.025378     beta(Y;Y,Z) = beta(Y,Z,Y)
@ B-freq = 0.012689  C-freq = 0.025378     beta(Z;Y,Z) = beta(Z,Z,Y)
@ B-freq = 0.019034  C-freq = 0.025378     beta(X;Y,Z) = beta(X,Z,Y)
@ B-freq = 0.019034  C-freq = 0.025378     beta(Y;Y,Z) = beta(Y,Z,Y)
@ B-freq = 0.019034  C-freq = 0.025378     beta(Z;Y,Z) = beta(Z,Z,Y)
@ B-freq = 0.025378  C-freq = 0.025378     beta(X;Y,Z) = beta(X,Z,Y)
@ B-freq = 0.025378  C-freq = 0.025378     beta(Y;Y,Z) = beta(Y,Z,Y)
@ B-freq = 0.025378  C-freq = 0.025378     beta(Z;Y,Z) = beta(Z,Z,Y)
@ B-freq = 0.000000  C-freq = 0.025378     beta(X;Z,Z) = beta(X,Z,Z)
@ B-freq = 0.000000  C-freq = 0.025378     beta(Y;Z,Z) = beta(Y,Z,Z)
@ B-freq = 0.000000  C-freq = 0.025378     beta(Z;Z,Z) = beta(Z,Z,Z)
@ B-freq = 0.006345  C-freq = 0.025378     beta(X;Z,Z) = beta(X,Z,Z)
@ B-freq = 0.006345  C-freq = 0.025378     beta(Y;Z,Z) = beta(Y,Z,Z)
@ B-freq = 0.006345  C-freq = 0.025378     beta(Z;Z,Z) = beta(Z,Z,Z)
@ B-freq = 0.012689  C-freq = 0.025378     beta(X;Z,Z) = beta(X,Z,Z)
@ B-freq = 0.012689  C-freq = 0.025378     beta(Y;Z,Z) = beta(Y,Z,Z)
@ B-freq = 0.012689  C-freq = 0.025378     beta(Z;Z,Z) = beta(Z,Z,Z)
@ B-freq = 0.019034  C-freq = 0.025378     beta(X;Z,Z) = beta(X,Z,Z)
@ B-freq = 0.019034  C-freq = 0.025378     beta(Y;Z,Z) = beta(Y,Z,Z)
@ B-freq = 0.019034  C-freq = 0.025378     beta(Z;Z,Z) = beta(Z,Z,Z)
@ B-freq = 0.025378  C-freq = 0.025378     beta(X;Z,Z) =     20.41209663
@ B-freq = 0.025378  C-freq = 0.025378     beta(Y;Z,Z) =     38.88689332
@ B-freq = 0.025378  C-freq = 0.025378     beta(Z;Z,Z) =     -0.00000000

  Total CPU  time used in RESPONSE:  4 minutes 37 seconds
  Total wall time used in RESPONSE:  4 minutes 38 seconds


                   .-------------------------------------------.
                   | End of Dynamic Property Section (RESPONS) |
                   `-------------------------------------------'

  Total CPU  time used in DALTON:  4 minutes 54 seconds
  Total wall time used in DALTON:  4 minutes 57 seconds

 
     Date and time (Linux)  : Wed Sep 13 19:00:04 2023
     Host name              : sn-mem                                  
