

     ************************************************************************
     *************** Dalton - An Electronic Structure Program ***************
     ************************************************************************

    This is output from DALTON release Dalton2020.0 (2020)
         ( Web site: http://daltonprogram.org )

   ----------------------------------------------------------------------------

    NOTE:
     
    Dalton is an experimental code for the evaluation of molecular
    properties using (MC)SCF, DFT, CI, and CC wave functions.
    The authors accept no responsibility for the performance of
    the code or for the correctness of the results.
     
    The code (in whole or part) is provided under a licence and
    is not to be reproduced for further distribution without
    the written permission of the authors or their representatives.
     
    See the home page "http://daltonprogram.org" for further information.
     
    If results obtained with this code are published,
    the appropriate citations would be both of:
     
       K. Aidas, C. Angeli, K. L. Bak, V. Bakken, R. Bast,
       L. Boman, O. Christiansen, R. Cimiraglia, S. Coriani,
       P. Dahle, E. K. Dalskov, U. Ekstroem,
       T. Enevoldsen, J. J. Eriksen, P. Ettenhuber, B. Fernandez,
       L. Ferrighi, H. Fliegl, L. Frediani, K. Hald, A. Halkier,
       C. Haettig, H. Heiberg, T. Helgaker, A. C. Hennum,
       H. Hettema, E. Hjertenaes, S. Hoest, I.-M. Hoeyvik,
       M. F. Iozzi, B. Jansik, H. J. Aa. Jensen, D. Jonsson,
       P. Joergensen, J. Kauczor, S. Kirpekar,
       T. Kjaergaard, W. Klopper, S. Knecht, R. Kobayashi, H. Koch,
       J. Kongsted, A. Krapp, K. Kristensen, A. Ligabue,
       O. B. Lutnaes, J. I. Melo, K. V. Mikkelsen, R. H. Myhre,
       C. Neiss, C. B. Nielsen, P. Norman, J. Olsen,
       J. M. H. Olsen, A. Osted, M. J. Packer, F. Pawlowski,
       T. B. Pedersen, P. F. Provasi, S. Reine, Z. Rinkevicius,
       T. A. Ruden, K. Ruud, V. Rybkin, P. Salek, C. C. M. Samson,
       A. Sanchez de Meras, T. Saue, S. P. A. Sauer,
       B. Schimmelpfennig, K. Sneskov, A. H. Steindal,
       K. O. Sylvester-Hvid, P. R. Taylor, A. M. Teale,
       E. I. Tellgren, D. P. Tew, A. J. Thorvaldsen, L. Thoegersen,
       O. Vahtras, M. A. Watson, D. J. D. Wilson, M. Ziolkowski
       and H. Agren,
       "The Dalton quantum chemistry program system",
       WIREs Comput. Mol. Sci. 2014, 4:269–284 (doi: 10.1002/wcms.1172)
     
    and
     
       Dalton, a molecular electronic structure program,
       Release Dalton2020.0 (2020), see http://daltonprogram.org
   ----------------------------------------------------------------------------

    Authors in alphabetical order (Major contribution(s) in parenthesis):

  Kestutis Aidas,           Vilnius University,           Lithuania   (QM/MM)
  Celestino Angeli,         University of Ferrara,        Italy       (NEVPT2)
  Keld L. Bak,              UNI-C,                        Denmark     (AOSOPPA, non-adiabatic coupling, magnetic properties)
  Vebjoern Bakken,          University of Oslo,           Norway      (DALTON; geometry optimizer, symmetry detection)
  Radovan Bast,             UiT The Arctic U. of Norway,  Norway      (DALTON installation and execution frameworks)
  Pablo Baudin,             University of Valencia,       Spain       (Cholesky excitation energies)
  Linus Boman,              NTNU,                         Norway      (Cholesky decomposition and subsystems)
  Bruno N. Cabral Tenorio,  Technical Univ. of Denmark,   Denmark     (Lanczos-based CC methods)
  Ove Christiansen,         Aarhus University,            Denmark     (CC module)
  Renzo Cimiraglia,         University of Ferrara,        Italy       (NEVPT2)
  Sonia Coriani,            Technical Univ. of Denmark,   Denmark     (CC and RESPONS modules)
  Janusz Cukras,            University of Warsaw,         Poland      (MChD in RESPONS)
  Paal Dahle,               University of Oslo,           Norway      (Parallelization)
  Erik K. Dalskov,          UNI-C,                        Denmark     (SOPPA)
  Thomas Enevoldsen,        Univ. of Southern Denmark,    Denmark     (SOPPA)
  Janus J. Eriksen,         Aarhus University,            Denmark     (Polarizable embedding, TDA)
  Rasmus Faber,             Technical Univ. of Denmark,   Denmark     (Vib.avg. NMR w. SOPPA, parallel AO-SOPPA, CVS-CC and EOMCC)
  Tobias Fahleson,          KTH Stockholm,                Sweden      (Damped cubic response)
  Berta Fernandez,          U. of Santiago de Compostela, Spain       (Doublet spin, ESR in RESPONS)
  Lara Ferrighi,            Aarhus University,            Denmark     (PCM Cubic response)
  Heike Fliegl,             University of Oslo,           Norway      (CCSD(R12))
  Luca Frediani,            UiT The Arctic U. of Norway,  Norway      (PCM)
  Emmanuel Fromager,        Univ. Strasbourg,             France      (MC-srDFT)
  Bin Gao,                  UiT The Arctic U. of Norway,  Norway      (Gen1Int library)
  Andre S. P. Gomes,        CNRS/Universite de Lille,     France      (Frozen density embedding)
  Christof Haettig,         Ruhr-University Bochum,       Germany     (CC module)
  Kasper Hald,              Aarhus University,            Denmark     (CC module)
  Asger Halkier,            Aarhus University,            Denmark     (CC module)
  Frederik Beyer Hansen,    University of Copenhagen,     Denmark     (Parallel AO-SOPPA)
  Erik D. Hedegaard,        Univ. of Southern Denmark,    Denmark     (Polarizable embedding, QM/MM, and MC-srDFT)
  Hanne Heiberg,            University of Oslo,           Norway      (Geometry analysis, selected one-electron integrals)
  Trygve Helgaker,          University of Oslo,           Norway      (DALTON; ABACUS, ERI, DFT modules, London, and much more)
  Alf Christian Hennum,     University of Oslo,           Norway      (Parity violation)
  Hinne Hettema,            University of Auckland,       New Zealand (Quadratic response in RESPONS; SIRIUS supersymmetry)
  Eirik Hjertenaes,         NTNU,                         Norway      (Cholesky decomposition)
  Pi A. B. Haase,           University of Copenhagen,     Denmark     (Triplet AO-SOPPA)
  Maria Francesca Iozzi,    University of Oslo,           Norway      (RPA)
  Christoph Jacob           TU Braunschweig               Germany     (Frozen density embedding)
  Brano Jansik              Technical Univ. of Ostrava    Czech Rep.  (DFT cubic response)
  Hans Joergen Aa. Jensen,  Univ. of Southern Denmark,    Denmark     (DALTON; SIRIUS, RESPONS, ABACUS, MC-srDFT, and much more)
  Dan Jonsson,              UiT The Arctic U. of Norway,  Norway      (Cubic response in RESPONS module)
  Poul Joergensen,          Aarhus University,            Denmark     (RESPONS, ABACUS, and CC modules)
  Maciej Kaminski,          University of Warsaw,         Poland      (CPPh in RESPONS)
  Joanna Kauczor,           Linkoeping University,        Sweden      (Complex polarization propagator (CPP) module)
  Sheela Kirpekar,          Univ. of Southern Denmark,    Denmark     (Mass-velocity & Darwin integrals)
  Erik Kjellgren,           Univ. of Southern Denmark,    Denmark     (MC-srDFT)
  Wim Klopper,              KIT Karlsruhe,                Germany     (R12 code in CC, SIRIUS, and ABACUS modules)
  Stefan Knecht,            ETH Zurich,                   Switzerland (Parallel CI and MCSCF, MC-srDFT)
  Rika Kobayashi,           Australian National Univ.,    Australia   (DIIS in CC, London in MCSCF)
  Henrik Koch,              NTNU,                         Norway      (CC module, Cholesky decomposition)
  Jacob Kongsted,           Univ. of Southern Denmark,    Denmark     (Polarizable embedding, polarizable density embedding, QM/MM)
  Andrea Ligabue,           University of Modena,         Italy       (CTOCD, AOSOPPA)
  Nanna H. List             Univ. of Southern Denmark,    Denmark     (Polarizable embedding)
  Ola B. Lutnaes,           University of Oslo,           Norway      (DFT Hessian)
  Juan I. Melo,             University of Buenos Aires,   Argentina   (LRESC, Relativistic Effects on NMR Shieldings)
  Kurt V. Mikkelsen,        University of Copenhagen,     Denmark     (MC-SCRF and QM/MM)
  Rolf H. Myhre,            NTNU,                         Norway      (Subsystems and CC3)
  Christian Neiss,          Univ. Erlangen-Nuernberg,     Germany     (CCSD(R12))
  Christian B. Nielsen,     University of Copenhagen,     Denmark     (QM/MM)
  Patrick Norman,           KTH Stockholm,                Sweden      (Cubic response and complex frequency response in RESPONS)
  Jeppe Olsen,              Aarhus University,            Denmark     (SIRIUS CI/density modules)
  Jogvan Magnus H. Olsen,   Aarhus University,            Denmark     (Polarizable embedding and polarizable density embedding)
  Anders Osted,             Copenhagen University,        Denmark     (QM/MM)
  Martin J. Packer,         University of Sheffield,      UK          (SOPPA)
  Filip Pawlowski,          Kazimierz Wielki University,  Poland      (CC3)
  Morten N. Pedersen,       Univ. of Southern Denmark,    Denmark     (Polarizable embedding)
  Thomas B. Pedersen,       University of Oslo,           Norway      (Cholesky decomposition)
  Patricio F. Provasi,      University of Northeastern,   Argentina   (Analysis of coupling constants in localized orbitals)
  Peter Reinholdt,          Univ. of Southern Denmark,    Denmark     (Polarizable embedding and polarizable density embedding)
  Zilvinas Rinkevicius,     KTH Stockholm,                Sweden      (open-shell DFT, ESR)
  Elias Rudberg,            KTH Stockholm,                Sweden      (DFT grid and basis info)
  Torgeir A. Ruden,         University of Oslo,           Norway      (Numerical derivatives in ABACUS)
  Kenneth Ruud,             UiT The Arctic U. of Norway,  Norway      (DALTON; ABACUS magnetic properties and much more)
  Pawel Salek,              KTH Stockholm,                Sweden      (DALTON; DFT code)
  Claire C. M. Samson       University of Karlsruhe       Germany     (Boys localization, r12 integrals in ERI)
  Alfredo Sanchez de Meras, University of Valencia,       Spain       (CC module, Cholesky decomposition)
  Trond Saue,               Paul Sabatier University,     France      (direct Fock matrix construction)
  Stephan P. A. Sauer,      University of Copenhagen,     Denmark     (SOPPA(CCSD), SOPPA prop., AOSOPPA, vibrational g-factors)
  Bernd Schimmelpfennig,    Forschungszentrum Karlsruhe,  Germany     (AMFI module)
  Anna K. Schnack-Petersen, University of Copenhagen,     Denmark     (RPA(D) and HRPA(D) properties in AOSOPPA)
  Kristian Sneskov,         Aarhus University,            Denmark     (Polarizable embedding, QM/MM)
  Arnfinn H. Steindal,      UiT The Arctic U. of Norway,  Norway      (parallel QM/MM, polarizable embedding)
  Casper Steinmann,         Aalborg University,           Denmark     (QFIT, polarizable embedding)
  K. O. Sylvester-Hvid,     University of Copenhagen,     Denmark     (MC-SCRF)
  Peter R. Taylor,          VLSCI/Univ. of Melbourne,     Australia   (Symmetry handling ABACUS, integral transformation)
  Andrew M. Teale,          University of Nottingham,     England     (DFT-AC, DFT-D)
  David P. Tew,             University of Bristol,        England     (CCSD(R12))
  Julien Toulouse,          Sorbonne Univ.,               France      (MC-srDFT)
  Olav Vahtras,             KTH Stockholm,                Sweden      (Triplet response, spin-orbit, ESR, TDDFT, open-shell DFT)
  Lucas Visscher,           Vrije Universiteit Amsterdam, Netherlands (Frozen density embedding)
  David J. Wilson,          La Trobe University,          Australia   (DFT Hessian and DFT magnetizabilities)
  Hans Agren,               KTH Stockholm,                Sweden      (SIRIUS module, RESPONS, MC-SCRF solvation)
 --------------------------------------------------------------------------------

     Date and time (Linux)  : Thu Sep  7 21:45:58 2023
     Host name              : sn-mem                                  

 * Work memory size             :    64000000 =  488.28 megabytes.

 * Directories for basis set searches:
   1) /gpfs/projects/rjh/adrian/august_no_symmetry/dalton/hf/H2O/dipole
   2) /gpfs/projects/rjh/adrian/dalton/build/basis


Compilation information
-----------------------

 Who compiled             | ahurtado
 Host                     | sn-mem
 System                   | Linux-3.10.0-1160.24.1.el7.x86_64
 CMake generator          | Unix Makefiles
 Processor                | x86_64
 64-bit integers          | OFF
 MPI                      | ON
 Fortran compiler         | /gpfs/software/intel/oneAPI/2021_4/mpi/2021.4.0/bi
                          | n/mpif90
 Fortran compiler version | GNU Fortran (GCC) 11.2.0
 C compiler               | /gpfs/software/intel/oneAPI/2021_4/mpi/2021.4.0/bi
                          | n/mpicc
 C compiler version       | gcc (GCC) 11.2.0
 C++ compiler             | /gpfs/software/intel/oneAPI/2021_4/mpi/2021.4.0/bi
                          | n/mpicxx
 C++ compiler version     | unknown
 BLAS                     | /gpfs/software/intel/oneAPI/2021_4/mkl/2021.4.0/li
                          | b/intel64/libmkl_gf_lp64.so;/gpfs/software/intel/o
                          | neAPI/2021_4/mkl/2021.4.0/lib/intel64/libmkl_seque
                          | ntial.so;/gpfs/software/intel/oneAPI/2021_4/mkl/20
                          | 21.4.0/lib/intel64/libmkl_core.so;/usr/lib64/libpt
                          | hread.so;/usr/lib64/libm.so
 LAPACK                   | /gpfs/software/intel/oneAPI/2021_4/mkl/2021.4.0/li
                          | b/intel64/libmkl_lapack95_lp64.a;/gpfs/software/in
                          | tel/oneAPI/2021_4/mkl/2021.4.0/lib/intel64/libmkl_
                          | gf_lp64.so
 Static linking           | OFF
 Last Git revision        | 66052b3af5ea7225e31178bf9a8b031913c72190
 Git branch               | (HEAD detached at Dalton2020.0)
 Configuration time       | 2023-01-11 13:33:37.731835

 * MPI parallel run using 5 processes.


   Content of the .dal input file
 ----------------------------------

**DALTON INPUT
.RUN RESPONSE
.DIRECT
**WAVE FUNCTIONS
.HF
**PROPERTIES
**RESPONSE
*QUADRA
.DIPLEN
.FREQUENCIES
5
0.0 0.0198666875 0.039733375 0.0596000625 0.07946675
**END OF DALTON INPUT


   Content of the .mol file
 ----------------------------

BASIS
d-aug-cc-pCVTZ
blah
blah
Atomtype=2 Angstrom Charge=0 Nosymmmetry
Charge=8 Atoms=1
O_a 0.000000000000 0.000000000000 0.117299997610
Charge=1 Atoms=2
H_a 0.000000000000 0.757199998838 -0.469200001024
H_b 0.000000000000 -0.757199998838 -0.469200001024


       *******************************************************************
       *********** Output from DALTON general input processing ***********
       *******************************************************************

 --------------------------------------------------------------------------------
   Overall default print level:    0
   Print level for DALTON.STAT:    1

    Parallel calculation using MPI
    AO-direct calculation (in sections where implemented)
    HERMIT 1- and 2-electron integral sections will be executed
    "Old" integral transformation used (limited to max 255 basis functions)
    Wave function sections will be executed (SIRIUS module)
    Dynamic molecular response properties section will be executed (RESPONSE module)
 --------------------------------------------------------------------------------


   ****************************************************************************
   *************** Output of molecule and basis set information ***************
   ****************************************************************************


    The two title cards from your ".mol" input:
    ------------------------------------------------------------------------
 1: blah                                                                    
 2: blah                                                                    
    ------------------------------------------------------------------------

  Coordinates are entered in Angstrom and converted to atomic units.
          - Conversion factor : 1 bohr = 0.52917721 A

  Atomic type no.    1
  --------------------
  Nuclear charge:   8.00000
  Number of symmetry independent centers:    1
  Number of basis sets to read;    2
  Basis set file used for this atomic type with Z =   8 :
     "/gpfs/projects/rjh/adrian/dalton/build/basis/aug-cc-pCVTZ"

  Atomic type no.    2
  --------------------
  Nuclear charge:   1.00000
  Number of symmetry independent centers:    2
  Number of basis sets to read;    2
  Basis set file used for this atomic type with Z =   1 :
     "/gpfs/projects/rjh/adrian/dalton/build/basis/aug-cc-pCVTZ"


                         SYMGRP: Point group information
                         -------------------------------

@    Point group: C1 


                                 Isotopic Masses
                                 ---------------

                           O_a        15.994915
                           H_a         1.007825
                           H_b         1.007825

                       Total mass:    18.010565 amu
                       Natural abundance:  99.730 %

 Center-of-mass coordinates (a.u.):    0.000000    0.000000    0.097627
 Center-of-mass coordinates (Angs):    0.000000    0.000000    0.051662


  Atoms and basis sets
  --------------------

  Number of atom types :    2
  Total number of atoms:    3

  Basis set used is "d-aug-cc-pCVTZ" from the basis set library.

  label    atoms   charge   prim   cont     basis
  ----------------------------------------------------------------------
  O_          1    8.0000    87    75      [14s9p5d3f|8s7p5d3f]                               
  H_          2    1.0000    34    32      [7s4p3d|5s4p3d]                                    
  ----------------------------------------------------------------------
  total:      3   10.0000   155   139
  ----------------------------------------------------------------------
  Spherical harmonic basis used.

  Threshold for neglecting AO integrals:  1.00D-12


  Cartesian Coordinates (a.u.)
  ----------------------------

  Total number of coordinates:    9
  O_a     :     1  x   0.0000000000    2  y   0.0000000000    3  z   0.2216648699
  H_a     :     4  x   0.0000000000    5  y   1.4309006196    6  z  -0.8866594998
  H_b     :     7  x   0.0000000000    8  y  -1.4309006196    9  z  -0.8866594998


   Interatomic separations (in Angstrom):
   --------------------------------------

            O_a         H_a         H_b   
            ------      ------      ------
 O_a   :    0.000000
 H_a   :    0.957776    0.000000
 H_b   :    0.957776    1.514400    0.000000


  Max    interatomic separation is    1.5144 Angstrom (    2.8618 Bohr)
  between atoms    3 and    2, "H_b   " and "H_a   ".

  Min HX interatomic separation is    0.9578 Angstrom (    1.8099 Bohr)


  Bond distances (Angstrom):
  --------------------------

                  atom 1     atom 2       distance
                  ------     ------       --------
  bond distance:  H_a        O_a          0.957776
  bond distance:  H_b        O_a          0.957776


  Bond angles (degrees):
  ----------------------

                  atom 1     atom 2     atom 3         angle
                  ------     ------     ------         -----
  bond angle:     H_a        O_a        H_b          104.480




 Principal moments of inertia (u*A**2) and principal axes
 --------------------------------------------------------

   IA       0.615752          0.000000    1.000000    0.000000
   IB       1.155677          0.000000    0.000000    1.000000
   IC       1.771429          1.000000    0.000000    0.000000


 Rotational constants
 --------------------

@    The molecule is planar.

               A                   B                   C

         820751.0438         437301.3971         285294.6081 MHz
           27.377308           14.586804            9.516404 cm-1


@  Nuclear repulsion energy :    9.189533777587 Hartree


                     .---------------------------------------.
                     | Starting in Integral Section (HERMIT) |
                     `---------------------------------------'



 ***************************************************************************************
 ****************** Output from **INTEGRALS input processing (HERMIT) ******************
 ***************************************************************************************


 - Using defaults, no **INTEGRALS input found

 Default print level:        1

 Calculation of one-electron Hamiltonian integrals.

 Center of mass  (bohr):      0.000000000000      0.000000000000      0.097626894688
 Operator center (bohr):      0.000000000000      0.000000000000      0.000000000000
 Gauge origin    (bohr):      0.000000000000      0.000000000000      0.000000000000
 Dipole origin   (bohr):      0.000000000000      0.000000000000      0.000000000000


     ************************************************************************
     ************************** Output from HERINT **************************
     ************************************************************************



                      Nuclear contribution to dipole moments
                      --------------------------------------

                 au               Debye          C m (/(10**-30)

      x      0.00000000         0.00000000         0.00000000
      y      0.00000000         0.00000000         0.00000000
      z     -0.00000004        -0.00000010        -0.00000034


  Total CPU  time used in HERMIT:   0.17 seconds
  Total wall time used in HERMIT:   0.17 seconds


                        .----------------------------------.
                        | End of Integral Section (HERMIT) |
                        `----------------------------------'



                   .--------------------------------------------.
                   | Starting in Wave Function Section (SIRIUS) |
                   `--------------------------------------------'


 *** Output from Huckel module :

     Using EWMO model:          T
     Using EHT  model:          F
     Number of Huckel orbitals each symmetry:    7

 EWMO - Energy Weighted Maximum Overlap - is a Huckel type method,
        which normally is better than Extended Huckel Theory.
 Reference: Linderberg and Ohrn, Propagators in Quantum Chemistry (Wiley, 1973)

 Huckel EWMO eigenvalues for symmetry :  1
          -20.684959      -1.611341      -0.778168      -0.688462      -0.616200
           -0.232449      -0.168322

 **********************************************************************
 *SIRIUS* a direct, restricted step, second order MCSCF program       *
 **********************************************************************

 
     Date and time (Linux)  : Thu Sep  7 21:45:58 2023
     Host name              : sn-mem                                  

 Title lines from ".mol" input file:
     blah                                                                    
     blah                                                                    

 Print level on unit LUPRI =   2 is   0
 Print level on unit LUW4  =   2 is   5

@    Restricted, closed shell Hartree-Fock calculation.

@    Time-dependent Hartree-Fock calculation (random phase approximation).
 Fock matrices are calculated directly and in parallel without use of integrals on disk.

 Initial molecular orbitals are obtained according to
 ".MOSTART EWMO  " input option

     Wave function specification
     ============================
@    Wave function type        --- HF ---
@    Number of closed shell electrons          10
@    Number of electrons in active shells       0
@    Total charge of the molecule               0

@    Spin multiplicity and 2 M_S                1         0
@    Total number of symmetries                 1 (point group: C1 )
@    Reference state symmetry                   1 (irrep name : A  )

     Orbital specifications
     ======================
@    Abelian symmetry species          All |    1
@                                          |  A  
                                       --- |  ---
@    Occupied SCF orbitals               5 |    5
@    Secondary orbitals                134 |  134
@    Total number of orbitals          139 |  139
@    Number of basis functions         139 |  139

     Optimization information
     ========================
@    Number of configurations                 1
@    Number of orbital rotations            670
     ------------------------------------------
@    Total number of variables              671

     Maximum number of Fock   iterations      0
     Maximum number of DIIS   iterations     60
     Maximum number of QC-SCF iterations     60
     Threshold for SCF convergence     1.00D-05


 ***********************************************
 ***** DIIS acceleration of SCF iterations *****
 ***********************************************

 C1-DIIS algorithm; max error vectors =    8

 Iter      Total energy        Error norm    Delta(E)  DIIS dim.
 -----------------------------------------------------------------------------
   1  Screening settings (-IFTHRS, JTDIIS, DIFDEN, times)   -8    1    T  5.51D-01  5.52D-01
@  1    -75.8734394169        2.01264D+00   -7.59D+01    1
      Virial theorem: -V/T =      1.996661
@    MULPOP   O_a    -0.63; H_a     0.31; H_b     0.31; 
   1  Level shift: doubly occupied orbital energies shifted by -2.00D-01
 -----------------------------------------------------------------------------
   2  Screening settings (-IFTHRS, JTDIIS, DIFDEN, times)   -8    2    T  5.25D-01  5.26D-01
@  2    -76.0496399149        4.22328D-01   -1.76D-01    2
      Virial theorem: -V/T =      2.003493
@    MULPOP   O_a    -0.53; H_a     0.26; H_b     0.26; 
   2  Level shift: doubly occupied orbital energies shifted by -5.00D-02
 -----------------------------------------------------------------------------
   3  Screening settings (-IFTHRS, JTDIIS, DIFDEN, times)   -8    3    T  5.36D-01  5.37D-01
@  3    -76.0594940174        1.13182D-01   -9.85D-03    3
      Virial theorem: -V/T =      2.000085
@    MULPOP   O_a    -0.51; H_a     0.26; H_b     0.26; 
   3  Level shift: doubly occupied orbital energies shifted by -2.50D-02
 -----------------------------------------------------------------------------
   4  Screening settings (-IFTHRS, JTDIIS, DIFDEN, times)  -12    4    F  5.45D-01  5.45D-01
@  4    -76.0606756427        5.33107D-02   -1.18D-03    4
      Virial theorem: -V/T =      2.001894
@    MULPOP   O_a    -0.50; H_a     0.25; H_b     0.25; 
   4  Level shift: doubly occupied orbital energies shifted by -1.25D-02
 -----------------------------------------------------------------------------
   5  Screening settings (-IFTHRS, JTDIIS, DIFDEN, times)  -12    5    T  5.46D-01  5.47D-01
@  5    -76.0608306742        1.18074D-02   -1.55D-04    5
      Virial theorem: -V/T =      2.000923
@    MULPOP   O_a    -0.51; H_a     0.26; H_b     0.26; 
 -----------------------------------------------------------------------------
   6  Screening settings (-IFTHRS, JTDIIS, DIFDEN, times)  -12    6    T  5.37D-01  5.38D-01
@  6    -76.0608542033        2.80275D-03   -2.35D-05    6
      Virial theorem: -V/T =      2.001030
@    MULPOP   O_a    -0.52; H_a     0.26; H_b     0.26; 
 -----------------------------------------------------------------------------
   7  Screening settings (-IFTHRS, JTDIIS, DIFDEN, times)  -12    7    T  5.37D-01  5.37D-01
@  7    -76.0608557250        4.86457D-04   -1.52D-06    7
      Virial theorem: -V/T =      2.001048
@    MULPOP   O_a    -0.52; H_a     0.26; H_b     0.26; 
 -----------------------------------------------------------------------------
   8  Screening settings (-IFTHRS, JTDIIS, DIFDEN, times)  -12    8    T  5.38D-01  5.38D-01
@  8    -76.0608557628        6.81402D-05   -3.78D-08    8
      Virial theorem: -V/T =      2.001052
@    MULPOP   O_a    -0.52; H_a     0.26; H_b     0.26; 
 -----------------------------------------------------------------------------
   9  Screening settings (-IFTHRS, JTDIIS, DIFDEN, times)  -12    9    T  5.24D-01  5.24D-01
@  9    -76.0608557635        1.10673D-05   -7.04D-10    8
      Virial theorem: -V/T =      2.001052
@    MULPOP   O_a    -0.52; H_a     0.26; H_b     0.26; 
 -----------------------------------------------------------------------------
  10  Screening settings (-IFTHRS, JTDIIS, DIFDEN, times)  -12   10    T  5.13D-01  5.14D-01
@ 10    -76.0608557635        2.32213D-06   -1.68D-11    8

@ *** DIIS converged in  10 iterations !
@     Converged SCF energy, gradient:    -76.060855763539    2.32D-06
    - total time used in SIRFCK :              0.00 seconds


 *** SCF orbital energy analysis ***

 Only the 20 lowest virtual orbital energies printed in each symmetry.

 Number of electrons :   10
 Orbital occupations :    5

 Sym       Hartree-Fock orbital energies

1 A     -20.56619067    -1.35321986    -0.71747326    -0.58498322    -0.51035799
          0.00682278     0.01196964     0.02999674     0.03519702     0.04185447
          0.04408218     0.06977223     0.07247701     0.07482636     0.08694544
          0.08787053     0.10103062     0.10694499     0.11505745     0.18469917
          0.18975402     0.18992753     0.20043523     0.21068297     0.21732164

    E(LUMO) :     0.00682278 au (symmetry 1)
  - E(HOMO) :    -0.51035799 au (symmetry 1)
  ------------------------------------------
    gap     :     0.51718078 au

 --- Writing SIRIFC interface file

 CPU and wall time for SCF :       5.531       5.557


                       .-----------------------------------.
                       | --- Final results from SIRIUS --- |
                       `-----------------------------------'


@    Spin multiplicity:           1
@    Spatial symmetry:            1 ( irrep  A   in C1  )
@    Total charge of molecule:    0

@    Final HF energy:             -76.060855763539                 
@    Nuclear repulsion:             9.189533777587
@    Electronic energy:           -85.250389541126

@    Final gradient norm:           0.000002322128

 
     Date and time (Linux)  : Thu Sep  7 21:46:04 2023
     Host name              : sn-mem                                  

File label for MO orbitals:   7Sep23   FOCKDIIS

 (Only coefficients > 0.0100 are printed.)

 Molecular orbitals for symmetry species 1  (A  )
 ------------------------------------------------

    Orbital         1        2        3        4        5        6        7
   1 O_a :1s    -0.9979   0.0131   0.0000  -0.0070  -0.0000   0.0003  -0.0000
   2 O_a :1s     0.0074  -0.8446   0.0000  -0.3225  -0.0000  -0.0388  -0.0000
   4 O_a :1s    -0.0080   0.0180   0.0000  -0.2196   0.0000  -0.1170   0.0000
   7 O_a :1s    -0.0061  -0.0741  -0.0000  -0.0707  -0.0000  -0.7255   0.0000
   8 O_a :1s    -0.0041  -0.0662  -0.0000   0.0288  -0.0000  -4.2608   0.0000
   9 O_a :2px   -0.0000  -0.0000   0.0000  -0.0000   0.9121  -0.0000  -0.0000
  10 O_a :2py    0.0000   0.0000  -0.7333  -0.0000   0.0000  -0.0000  -0.0155
  11 O_a :2pz    0.0033   0.1160   0.0000  -0.8056  -0.0000   0.0334  -0.0000
  13 O_a :2py   -0.0000  -0.0000   0.0187   0.0000   0.0000   0.0000  -0.0072
  14 O_a :2pz   -0.0027   0.0031  -0.0000   0.0138   0.0000   0.0045   0.0000
  15 O_a :2px    0.0000   0.0000  -0.0000   0.0000   0.0320   0.0000   0.0000
  16 O_a :2py    0.0000  -0.0000   0.1057   0.0000   0.0000  -0.0000  -0.1448
  17 O_a :2pz    0.0021  -0.0211  -0.0000   0.0691   0.0000   0.0226   0.0000
  24 O_a :2px   -0.0000  -0.0000   0.0000  -0.0000   0.0666  -0.0000  -0.0000
  25 O_a :2py   -0.0000  -0.0000   0.0147  -0.0000   0.0000   0.0000  -0.5408
  26 O_a :2pz    0.0007  -0.0000  -0.0000  -0.0144  -0.0000  -0.0052   0.0000
  28 O_a :2py    0.0000  -0.0000  -0.0046   0.0000  -0.0000  -0.0000  -1.4992
  29 O_a :2pz    0.0001   0.0017   0.0000  -0.0025   0.0000  -0.0492  -0.0000
  36 O_a :3d1-  -0.0000  -0.0000   0.0126  -0.0000   0.0000   0.0000  -0.0000
  41 O_a :3d1-   0.0000   0.0000   0.0236  -0.0000  -0.0000  -0.0000   0.0073
  42 O_a :3d0   -0.0000  -0.0034   0.0000   0.0166   0.0000  -0.0007  -0.0000
  43 O_a :3d1+   0.0000   0.0000  -0.0000   0.0000  -0.0150   0.0000   0.0000
  46 O_a :3d1-  -0.0000   0.0000  -0.0156  -0.0000  -0.0000   0.0000   0.0396
  49 O_a :3d2+   0.0016  -0.0022  -0.0000   0.0171  -0.0000  -0.0021  -0.0000
  51 O_a :3d1-  -0.0000   0.0000  -0.0058   0.0000   0.0000   0.0000   0.0492
  52 O_a :3d0    0.0003   0.0023  -0.0000   0.0019  -0.0000   0.0209  -0.0000
  54 O_a :3d2+   0.0005   0.0015  -0.0000  -0.0019   0.0000   0.0249   0.0000
  76 H_a :1s    -0.0019  -0.3711  -0.5884   0.3557   0.0000   0.0031  -0.0071
  77 H_a :1s     0.0035   0.1089   0.0559   0.0181  -0.0000   0.0062   0.0784
  78 H_a :1s     0.0040   0.1725   0.2284  -0.0794  -0.0000   0.2124   0.2788
  79 H_a :1s     0.0023   0.0398   0.1187  -0.0147   0.0000   1.9989   3.5475
  80 H_a :1s     0.0000   0.0006   0.0038  -0.0005   0.0000   0.7125   6.5502
  81 H_a :2px    0.0000   0.0000  -0.0000   0.0000   0.0109   0.0000   0.0000
  82 H_a :2py    0.0001   0.0113   0.0097  -0.0101  -0.0000   0.0015  -0.0006
  83 H_a :2pz   -0.0001  -0.0079  -0.0129  -0.0011   0.0000  -0.0008  -0.0003
  84 H_a :2px   -0.0000  -0.0000   0.0000  -0.0000   0.0261  -0.0000  -0.0000
  85 H_a :2py    0.0003   0.0102   0.0178  -0.0340   0.0000  -0.0054  -0.0111
  86 H_a :2pz   -0.0003  -0.0072  -0.0260   0.0046  -0.0000   0.0039   0.0188
  88 H_a :2py    0.0006  -0.0090  -0.0388   0.0011  -0.0000  -0.0521   0.0567
  89 H_a :2pz    0.0005   0.0116   0.0159  -0.0126  -0.0000   0.0728   0.0791
  90 H_a :2px   -0.0000  -0.0000   0.0000  -0.0000  -0.0100  -0.0000  -0.0000
  91 H_a :2py   -0.0001  -0.0062  -0.0274   0.0023  -0.0000  -0.3065  -0.2012
  92 H_a :2pz    0.0003   0.0062   0.0086  -0.0003   0.0000   0.3414   0.4330
 104 H_a :3d1-  -0.0001  -0.0022  -0.0067   0.0015   0.0000  -0.0282  -0.0116
 105 H_a :3d0    0.0001   0.0005  -0.0016  -0.0008  -0.0000   0.0176   0.0299
 107 H_a :3d2+   0.0001  -0.0016  -0.0063   0.0019  -0.0000  -0.0370   0.0199
 108 H_b :1s    -0.0019  -0.3711   0.5884   0.3557   0.0000   0.0031   0.0071
 109 H_b :1s     0.0035   0.1089  -0.0559   0.0181  -0.0000   0.0062  -0.0784
 110 H_b :1s     0.0040   0.1725  -0.2284  -0.0794   0.0000   0.2124  -0.2788
 111 H_b :1s     0.0023   0.0398  -0.1187  -0.0147   0.0000   1.9989  -3.5475
 112 H_b :1s     0.0000   0.0006  -0.0038  -0.0005  -0.0000   0.7125  -6.5502
 113 H_b :2px    0.0000   0.0000  -0.0000   0.0000   0.0109   0.0000   0.0000
 114 H_b :2py   -0.0001  -0.0113   0.0097   0.0101   0.0000  -0.0015  -0.0006
 115 H_b :2pz   -0.0001  -0.0079   0.0129  -0.0011   0.0000  -0.0008   0.0003
 116 H_b :2px   -0.0000  -0.0000   0.0000  -0.0000   0.0261  -0.0000  -0.0000
 117 H_b :2py   -0.0003  -0.0102   0.0178   0.0340  -0.0000   0.0054  -0.0111
 118 H_b :2pz   -0.0003  -0.0072   0.0260   0.0046  -0.0000   0.0039  -0.0188
 120 H_b :2py   -0.0006   0.0090  -0.0388  -0.0011   0.0000   0.0521   0.0567
 121 H_b :2pz    0.0005   0.0116  -0.0159  -0.0126  -0.0000   0.0728  -0.0791
 122 H_b :2px   -0.0000  -0.0000   0.0000  -0.0000  -0.0100  -0.0000  -0.0000
 123 H_b :2py    0.0001   0.0062  -0.0274  -0.0023   0.0000   0.3065  -0.2012
 124 H_b :2pz    0.0003   0.0062  -0.0086  -0.0003   0.0000   0.3414  -0.4330
 136 H_b :3d1-   0.0001   0.0022  -0.0067  -0.0015  -0.0000   0.0282  -0.0116
 137 H_b :3d0    0.0001   0.0005   0.0016  -0.0008  -0.0000   0.0176  -0.0299
 139 H_b :3d2+   0.0001  -0.0016   0.0063   0.0019  -0.0000  -0.0370  -0.0199

    Orbital         8        9       10       11       12       13       14
   1 O_a :1s     0.0046  -0.0000   0.0021  -0.0000  -0.0000  -0.0139   0.0000
   2 O_a :1s     0.0535  -0.0000   0.0913  -0.0000  -0.0000  -0.0500   0.0000
   3 O_a :1s    -0.0011  -0.0000  -0.0024   0.0000   0.0000   0.0153  -0.0000
   4 O_a :1s    -0.5323   0.0000  -0.1427   0.0000   0.0000   0.0706   0.0000
   7 O_a :1s    -2.7474  -0.0000  -1.4254   0.0000   0.0000   1.8259   0.0000
   8 O_a :1s   -17.6112  -0.0000  -9.3534   0.0000   0.0000  11.6252   0.0000
   9 O_a :2px    0.0000   0.0427   0.0000  -0.0000   0.0000   0.0000   0.0000
  10 O_a :2py   -0.0000   0.0000  -0.0000  -0.0603   0.0371   0.0000  -0.0000
  11 O_a :2pz   -0.0688  -0.0000  -0.0411  -0.0000  -0.0000   0.0026   0.0000
  13 O_a :2py    0.0000   0.0000   0.0000   0.0226   0.0028  -0.0000   0.0000
  14 O_a :2pz    0.0237   0.0000   0.0043   0.0000  -0.0000   0.0009  -0.0000
  15 O_a :2px   -0.0000  -0.0740  -0.0000   0.0000  -0.0000  -0.0000  -0.0000
  16 O_a :2py   -0.0000   0.0000  -0.0000   0.3980   0.4390   0.0000   0.0000
  17 O_a :2pz    0.2454   0.0000  -0.1262  -0.0000  -0.0000   0.1351  -0.0000
  24 O_a :2px    0.0000  -0.7677   0.0000  -0.0000   0.0000   0.0000   0.0000
  25 O_a :2py   -0.0000   0.0000   0.0000   1.4348   1.5361  -0.0000   0.0000
  26 O_a :2pz    0.7217  -0.0000  -0.7815  -0.0000  -0.0000   0.8064  -0.0000
  27 O_a :2px   -0.0000  -2.3164  -0.0000   0.0000  -0.0000  -0.0000   0.0000
  28 O_a :2py   -0.0000  -0.0000  -0.0000   4.7090   2.0389  -0.0000   0.0000
  29 O_a :2pz    2.4159   0.0000  -1.4198  -0.0000  -0.0000   0.3676  -0.0000
  41 O_a :3d1-  -0.0000  -0.0000  -0.0000  -0.0183  -0.0162  -0.0000  -0.0000
  44 O_a :3d2+   0.0134  -0.0000  -0.0021   0.0000   0.0000  -0.0024  -0.0000
  45 O_a :3d2-  -0.0000  -0.0000  -0.0000   0.0000  -0.0000  -0.0000  -0.2053
  46 O_a :3d1-   0.0000  -0.0000   0.0000  -0.0964  -0.3941  -0.0000  -0.0000
  47 O_a :3d0   -0.0172  -0.0000   0.0327  -0.0000  -0.0000  -0.1846   0.0000
  48 O_a :3d1+   0.0000   0.0134   0.0000  -0.0000   0.0000   0.0000   0.0000
  49 O_a :3d2+   0.0349  -0.0000  -0.0437  -0.0000  -0.0000  -0.1941  -0.0000
  50 O_a :3d2-   0.0000   0.0000  -0.0000   0.0000  -0.0000  -0.0000  -0.3830
  51 O_a :3d1-   0.0000   0.0000   0.0000  -0.1046  -0.5583   0.0000  -0.0000
  52 O_a :3d0   -0.0227  -0.0000   0.1338  -0.0000  -0.0000  -0.4366  -0.0000
  53 O_a :3d1+   0.0000   0.0671   0.0000  -0.0000   0.0000   0.0000   0.0000
  54 O_a :3d2+   0.0177   0.0000   0.0292   0.0000  -0.0000  -0.4402  -0.0000
  63 O_a :4f2-   0.0000   0.0000   0.0000  -0.0000   0.0000   0.0000   0.0116
  64 O_a :4f1-  -0.0000   0.0000  -0.0000  -0.0011   0.0196  -0.0000   0.0000
  65 O_a :4f0    0.0001   0.0000   0.0002   0.0000   0.0000   0.0124  -0.0000
  69 O_a :4f3-  -0.0000  -0.0000  -0.0000  -0.0235  -0.0441   0.0000   0.0000
  70 O_a :4f2-   0.0000  -0.0000   0.0000  -0.0000   0.0000   0.0000   0.0748
  71 O_a :4f1-  -0.0000   0.0000  -0.0000  -0.0035   0.1087   0.0000   0.0000
  72 O_a :4f0   -0.0063   0.0000   0.0106   0.0000   0.0000   0.0627   0.0000
  74 O_a :4f2+  -0.0076   0.0000   0.0259  -0.0000  -0.0000   0.0538   0.0000
  75 O_a :4f3+   0.0000   0.0117   0.0000  -0.0000   0.0000   0.0000   0.0000
  76 H_a :1s    -0.0008   0.0000  -0.0140  -0.0070   0.0016  -0.0187   0.0000
  77 H_a :1s     0.1557  -0.0000  -0.1089  -0.2059  -0.4490  -0.1077  -0.0000
  78 H_a :1s     1.0299  -0.0000   0.1586  -0.8302  -0.7621  -1.0680  -0.0000
  79 H_a :1s     8.7610   0.0000   4.0273 -13.1710 -15.8056  -6.1944  -0.0000
  80 H_a :1s     0.6052   0.0000   0.6159  -6.2452  -0.7126  -0.0314  -0.0000
  84 H_a :2px    0.0000   0.0087   0.0000  -0.0000   0.0000   0.0000   0.0768
  85 H_a :2py   -0.0700   0.0000  -0.0028   0.0375   0.0475  -0.0479  -0.0000
  86 H_a :2pz    0.0457  -0.0000   0.0102  -0.0605   0.0056  -0.0699   0.0000
  87 H_a :2px    0.0000   0.1769   0.0000  -0.0000   0.0000   0.0000   0.8952
  88 H_a :2py   -0.2585  -0.0000  -0.2041  -0.0837  -0.3209  -0.5590  -0.0000
  89 H_a :2pz    0.1473  -0.0000   0.3688  -0.2925   0.7249  -0.5118   0.0000
  90 H_a :2px    0.0000   0.9549   0.0000  -0.0000   0.0000   0.0000   3.4392
  91 H_a :2py   -0.8219  -0.0000  -1.2679   1.2385   2.3900  -1.8361   0.0000
  92 H_a :2pz    0.5844   0.0000   1.5503  -1.7046   2.3435  -1.4848  -0.0000
  98 H_a :3d2-  -0.0000  -0.0073  -0.0000   0.0000  -0.0000  -0.0000  -0.0498
  99 H_a :3d1-  -0.0184  -0.0000  -0.0294   0.0102  -0.0476  -0.0016  -0.0000
 100 H_a :3d0   -0.0050  -0.0000   0.0089  -0.0244   0.0313  -0.0493   0.0000
 101 H_a :3d1+   0.0000   0.0086   0.0000  -0.0000   0.0000   0.0000   0.0501
 102 H_a :3d2+  -0.0175  -0.0000  -0.0063  -0.0166  -0.0363  -0.0410  -0.0000
 103 H_a :3d2-  -0.0000  -0.0993  -0.0000   0.0000  -0.0000  -0.0000  -0.5109
 104 H_a :3d1-  -0.0292   0.0000  -0.1497   0.0675  -0.4883   0.0166  -0.0000
 105 H_a :3d0   -0.0276  -0.0000   0.0759  -0.0872   0.0891  -0.3112   0.0000
 106 H_a :3d1+   0.0000   0.1323   0.0000  -0.0000   0.0000   0.0000   0.1145
 107 H_a :3d2+   0.0109  -0.0000  -0.1593  -0.0506  -0.0418  -0.3303  -0.0000
 108 H_b :1s    -0.0008   0.0000  -0.0140   0.0070  -0.0016  -0.0187   0.0000
 109 H_b :1s     0.1557  -0.0000  -0.1089   0.2059   0.4490  -0.1077  -0.0000
 110 H_b :1s     1.0299   0.0000   0.1586   0.8302   0.7621  -1.0680  -0.0000
 111 H_b :1s     8.7610   0.0000   4.0273  13.1710  15.8056  -6.1944  -0.0000
 112 H_b :1s     0.6052  -0.0000   0.6159   6.2452   0.7126  -0.0314   0.0000
 116 H_b :2px    0.0000   0.0087   0.0000  -0.0000   0.0000   0.0000  -0.0768
 117 H_b :2py    0.0700  -0.0000   0.0028   0.0375   0.0475   0.0479   0.0000
 118 H_b :2pz    0.0457  -0.0000   0.0102   0.0605  -0.0056  -0.0699   0.0000
 119 H_b :2px    0.0000   0.1769   0.0000  -0.0000   0.0000   0.0000  -0.8952
 120 H_b :2py    0.2585   0.0000   0.2041  -0.0837  -0.3209   0.5590   0.0000
 121 H_b :2pz    0.1473  -0.0000   0.3688   0.2925  -0.7249  -0.5118   0.0000
 122 H_b :2px    0.0000   0.9549   0.0000  -0.0000   0.0000   0.0000  -3.4392
 123 H_b :2py    0.8219   0.0000   1.2679   1.2385   2.3900   1.8361  -0.0000
 124 H_b :2pz    0.5844   0.0000   1.5503   1.7046  -2.3435  -1.4848  -0.0000
 130 H_b :3d2-   0.0000   0.0073   0.0000  -0.0000   0.0000   0.0000  -0.0498
 131 H_b :3d1-   0.0184   0.0000   0.0294   0.0102  -0.0476   0.0016   0.0000
 132 H_b :3d0   -0.0050  -0.0000   0.0089   0.0244  -0.0313  -0.0493   0.0000
 133 H_b :3d1+   0.0000   0.0086   0.0000  -0.0000   0.0000   0.0000  -0.0501
 134 H_b :3d2+  -0.0175  -0.0000  -0.0063   0.0166   0.0363  -0.0410  -0.0000
 135 H_b :3d2-   0.0000   0.0993   0.0000  -0.0000   0.0000   0.0000  -0.5109
 136 H_b :3d1-   0.0292  -0.0000   0.1497   0.0675  -0.4883  -0.0166   0.0000
 137 H_b :3d0   -0.0276  -0.0000   0.0759   0.0872  -0.0891  -0.3112   0.0000
 138 H_b :3d1+   0.0000   0.1323   0.0000  -0.0000   0.0000   0.0000  -0.1145
 139 H_b :3d2+   0.0109  -0.0000  -0.1593   0.0506   0.0418  -0.3303  -0.0000

    Orbital        15
   9 O_a :2px    0.0902
  12 O_a :2px   -0.0167
  15 O_a :2px    0.5096
  24 O_a :2px    3.2468
  27 O_a :2px    2.9608
  48 O_a :3d1+  -0.1720
  53 O_a :3d1+  -0.4913
  68 O_a :4f3+  -0.0133
  73 O_a :4f1+   0.0319
  75 O_a :4f3+  -0.0573
  84 H_a :2px   -0.0918
  87 H_a :2px   -0.9462
  90 H_a :2px   -2.5633
  98 H_a :3d2-   0.0738
 101 H_a :3d1+  -0.0515
 103 H_a :3d2-   0.3008
 106 H_a :3d1+  -0.1659
 116 H_b :2px   -0.0918
 119 H_b :2px   -0.9462
 122 H_b :2px   -2.5633
 130 H_b :3d2-  -0.0738
 133 H_b :3d1+  -0.0515
 135 H_b :3d2-  -0.3008
 138 H_b :3d1+  -0.1659

  Total CPU  time used in SIRIUS :   5.66 seconds
  Total wall time used in SIRIUS :   5.69 seconds

 
     Date and time (Linux)  : Thu Sep  7 21:46:04 2023
     Host name              : sn-mem                                  


                     .---------------------------------------.
                     | End of Wave Function Section (SIRIUS) |
                     `---------------------------------------'



                 .------------------------------------------------.
                 | Starting in Dynamic Property Section (RESPONS) |
                 `------------------------------------------------'


 ----------------------------------------------------------------------------------------
  RESPONSE  -  an MCSCF, MC-srDFT, DFT, SOPPA and SOPPA-srDFT response property program
 ----------------------------------------------------------------------------------------


 -------- OUTPUT FROM RESPONSE INPUT PROCESSING --------




 Quadratic Response calculation
 ------------------------------

 First hyperpolarizability calculation : HYPCAL= T

 Spin of operator A , ISPINA=    0
 Spin of operator B , ISPINB=    0
 Spin of operator C , ISPINC=    0

  5 B-frequencies  0.000000D+00  1.986669D-02  3.973338D-02  5.960006D-02  7.946675D-02
  5 C-frequencies  0.000000D+00  1.986669D-02  3.973338D-02  5.960006D-02  7.946675D-02


 Print level                                    : IPRHYP =   2
 Maximum number of iterations in lin.rsp. solver: MAXITL =  60
 Threshold for convergence of linear resp. eq.s : THCLR  = 1.000D-03
 Maximum iterations in optimal orbital algorithm: MAXITO =   5
 Direct one-index transformation                : DIROIT = T

    3 A OPERATORS OF SYMMETRY NO:    1 AND LABELS:

          XDIPLEN 
          YDIPLEN 
          ZDIPLEN 

    3 B OPERATORS OF SYMMETRY NO:    1 AND LABELS:

          XDIPLEN 
          YDIPLEN 
          ZDIPLEN 

    3 C OPERATORS OF SYMMETRY NO:    1 AND LABELS:

          XDIPLEN 
          YDIPLEN 
          ZDIPLEN 


   SCF energy         :      -76.060855763538768
 -- inactive part     :      -85.250389541125614
 -- nuclear repulsion :        9.189533777586849


                     ***************************************
                     *** RHF response calculation (TDHF) ***
                     ***************************************



 Linear response calculations for quadratic response
 - singlet property operator of symmetry    1  ( A  )


 Perturbation symmetry.     KSYMOP:           1
 Perturbation spin symmetry.TRPLET:           F
 Orbital variables.         KZWOPT:         670
 Configuration variables.   KZCONF:           0
 Total number of variables. KZVAR :         670


 QRLRVE -- linear response calculation for symmetry  1  ( A  )
 QRLRVE -- operator label : XDIPLEN 
 QRLRVE -- operator spin  :   0
 QRLRVE -- frequencies :  0.000000  0.019867  0.039733  0.059600  0.079467
                          0.099333  0.119200  0.139067  0.158934



 ---  SOLVING SETS OF LINEAR EQUATIONS FOR LINEAR RESPONSE PROPERTIES ---

 Operator symmetry = 1  ( A  ); triplet =   F


 ** RSPCTL MICROITERATION NUMBER    1

       No.  Residual tot.,    conf., and orb.    Bnorm      Frequency 
      ----------------------------------------------------------------
         1    7.03694D-01  0.00D+00  7.04D-01  2.36D+00    0.00000D+00
         2    7.04562D-01  0.00D+00  7.05D-01  2.37D+00    1.98667D-02
         3    7.07198D-01  0.00D+00  7.07D-01  2.38D+00    3.97334D-02
         4    7.11698D-01  0.00D+00  7.12D-01  2.42D+00    5.96001D-02
         5    7.18234D-01  0.00D+00  7.18D-01  2.46D+00    7.94668D-02
         6    7.27071D-01  0.00D+00  7.27D-01  2.53D+00    9.93334D-02
         7    7.38602D-01  0.00D+00  7.39D-01  2.61D+00    1.19200D-01
         8    7.53393D-01  0.00D+00  7.53D-01  2.72D+00    1.39067D-01
         9    7.72277D-01  0.00D+00  7.72D-01  2.85D+00    1.58934D-01

 ** RSPCTL MICROITERATION NUMBER    2

       No.  Residual tot.,    conf., and orb.    Bnorm      Frequency 
      ----------------------------------------------------------------
         1    7.24418D-02  0.00D+00  7.24D-02  2.46D+00    0.00000D+00
         2    7.28210D-02  0.00D+00  7.28D-02  2.46D+00    1.98667D-02
         3    7.39833D-02  0.00D+00  7.40D-02  2.49D+00    3.97334D-02
         4    7.60053D-02  0.00D+00  7.60D-02  2.53D+00    5.96001D-02
         5    7.90264D-02  0.00D+00  7.90D-02  2.59D+00    7.94668D-02
         6    8.32687D-02  0.00D+00  8.33D-02  2.67D+00    9.93334D-02
         7    8.90726D-02  0.00D+00  8.91D-02  2.77D+00    1.19200D-01
         8    9.69585D-02  0.00D+00  9.70D-02  2.91D+00    1.39067D-01
         9    1.07736D-01  0.00D+00  1.08D-01  3.09D+00    1.58934D-01

 ** RSPCTL MICROITERATION NUMBER    3

       No.  Residual tot.,    conf., and orb.    Bnorm      Frequency 
      ----------------------------------------------------------------
         1    5.45987D-03  0.00D+00  5.46D-03  2.46D+00    0.00000D+00
         2    5.53592D-03  0.00D+00  5.54D-03  2.46D+00    1.98667D-02
         3    5.76600D-03  0.00D+00  5.77D-03  2.49D+00    3.97334D-02
         4    6.15687D-03  0.00D+00  6.16D-03  2.53D+00    5.96001D-02
         5    6.72261D-03  0.00D+00  6.72D-03  2.59D+00    7.94668D-02
         6    7.48880D-03  0.00D+00  7.49D-03  2.67D+00    9.93334D-02
         7    8.49888D-03  0.00D+00  8.50D-03  2.78D+00    1.19200D-01
         8    9.82439D-03  0.00D+00  9.82D-03  2.92D+00    1.39067D-01
         9    1.15830D-02  0.00D+00  1.16D-02  3.10D+00    1.58934D-01

 ** RSPCTL MICROITERATION NUMBER    4

       No.  Residual tot.,    conf., and orb.    Bnorm      Frequency 
      ----------------------------------------------------------------
         1    8.95301D-04  0.00D+00  8.95D-04  2.46D+00    0.00000D+00
         2    9.02079D-04  0.00D+00  9.02D-04  2.46D+00    1.98667D-02
         3    9.22855D-04  0.00D+00  9.23D-04  2.49D+00    3.97334D-02
         4    9.59008D-04  0.00D+00  9.59D-04  2.53D+00    5.96001D-02
         5    1.01306D-03  0.00D+00  1.01D-03  2.59D+00    7.94668D-02
         6    1.08904D-03  0.00D+00  1.09D-03  2.67D+00    9.93334D-02
         7    1.19322D-03  0.00D+00  1.19D-03  2.78D+00    1.19200D-01
         8    1.33534D-03  0.00D+00  1.34D-03  2.92D+00    1.39067D-01
         9    1.53092D-03  0.00D+00  1.53D-03  3.10D+00    1.58934D-01

 *** THE REQUESTED    9 SOLUTION VECTORS CONVERGED

 Convergence of RSP solution vectors, threshold = 1.00D-03
 ---------------------------------------------------------------
 (dimension of paired reduced space:   72)
 RSP solution vector no.    1; norm of residual   3.64D-04
 RSP solution vector no.    2; norm of residual   3.66D-04
 RSP solution vector no.    3; norm of residual   3.71D-04
 RSP solution vector no.    4; norm of residual   3.79D-04
 RSP solution vector no.    5; norm of residual   3.91D-04
 RSP solution vector no.    6; norm of residual   4.08D-04
 RSP solution vector no.    7; norm of residual   4.30D-04
 RSP solution vector no.    8; norm of residual   4.58D-04
 RSP solution vector no.    9; norm of residual   4.94D-04

 *** RSPCTL MICROITERATIONS CONVERGED

@ QRLRVE: SINGLET SOLUTION FOR SYMMETRY    1  ( A  )    LABEL   XDIPLEN     FREQUENCY   0.000000D+00

@ QRLRVE:  << XDIPLEN  ; XDIPLEN  >> (   0.00000):     7.91237862520    

@ QRLRVE:  << YDIPLEN  ; XDIPLEN  >> (   0.00000):    4.726729116748E-16

@ QRLRVE:  << ZDIPLEN  ; XDIPLEN  >> (   0.00000):   -5.533261352962E-16

@ QRLRVE: SINGLET SOLUTION FOR SYMMETRY    1  ( A  )    LABEL   XDIPLEN     FREQUENCY   0.198667D-01

@ QRLRVE:  << XDIPLEN  ; XDIPLEN  >> (   0.01987):     7.92295137325    

@ QRLRVE:  << YDIPLEN  ; XDIPLEN  >> (   0.01987):    4.747189787012E-16

@ QRLRVE:  << ZDIPLEN  ; XDIPLEN  >> (   0.01987):   -5.555042129249E-16

@ QRLRVE: SINGLET SOLUTION FOR SYMMETRY    1  ( A  )    LABEL   XDIPLEN     FREQUENCY   0.397334D-01

@ QRLRVE:  << XDIPLEN  ; XDIPLEN  >> (   0.03973):     7.95500091509    

@ QRLRVE:  << YDIPLEN  ; XDIPLEN  >> (   0.03973):    4.809574837089E-16

@ QRLRVE:  << ZDIPLEN  ; XDIPLEN  >> (   0.03973):   -5.621624427267E-16

@ QRLRVE: SINGLET SOLUTION FOR SYMMETRY    1  ( A  )    LABEL   XDIPLEN     FREQUENCY   0.596001D-01

@ QRLRVE:  << XDIPLEN  ; XDIPLEN  >> (   0.05960):     8.00955560602    

@ QRLRVE:  << YDIPLEN  ; XDIPLEN  >> (   0.05960):    4.917016416951E-16

@ QRLRVE:  << ZDIPLEN  ; XDIPLEN  >> (   0.05960):   -5.736903772980E-16

@ QRLRVE: SINGLET SOLUTION FOR SYMMETRY    1  ( A  )    LABEL   XDIPLEN     FREQUENCY   0.794668D-01

@ QRLRVE:  << XDIPLEN  ; XDIPLEN  >> (   0.07947):     8.08845181448    

@ QRLRVE:  << YDIPLEN  ; XDIPLEN  >> (   0.07947):    5.075173674344E-16

@ QRLRVE:  << ZDIPLEN  ; XDIPLEN  >> (   0.07947):   -5.908003068471E-16

@ QRLRVE: SINGLET SOLUTION FOR SYMMETRY    1  ( A  )    LABEL   XDIPLEN     FREQUENCY   0.993334D-01

@ QRLRVE:  << XDIPLEN  ; XDIPLEN  >> (   0.09933):     8.19454695390    

@ QRLRVE:  << YDIPLEN  ; XDIPLEN  >> (   0.09933):    5.293003094488E-16

@ QRLRVE:  << ZDIPLEN  ; XDIPLEN  >> (   0.09933):   -6.146393944717E-16

@ QRLRVE: SINGLET SOLUTION FOR SYMMETRY    1  ( A  )    LABEL   XDIPLEN     FREQUENCY   0.119200D+00

@ QRLRVE:  << XDIPLEN  ; XDIPLEN  >> (   0.11920):     8.33208852191    

@ QRLRVE:  << YDIPLEN  ; XDIPLEN  >> (   0.11920):    5.584108110407E-16

@ QRLRVE:  << ZDIPLEN  ; XDIPLEN  >> (   0.11920):   -6.469896042628E-16

@ QRLRVE: SINGLET SOLUTION FOR SYMMETRY    1  ( A  )    LABEL   XDIPLEN     FREQUENCY   0.139067D+00

@ QRLRVE:  << XDIPLEN  ; XDIPLEN  >> (   0.13907):     8.50734583635    

@ QRLRVE:  << YDIPLEN  ; XDIPLEN  >> (   0.13907):    5.969079762349E-16

@ QRLRVE:  << ZDIPLEN  ; XDIPLEN  >> (   0.13907):   -6.906216874888E-16

@ QRLRVE: SINGLET SOLUTION FOR SYMMETRY    1  ( A  )    LABEL   XDIPLEN     FREQUENCY   0.158934D+00

@ QRLRVE:  << XDIPLEN  ; XDIPLEN  >> (   0.15893):     8.72972026993    

@ QRLRVE:  << YDIPLEN  ; XDIPLEN  >> (   0.15893):    6.479666942905E-16

@ QRLRVE:  << ZDIPLEN  ; XDIPLEN  >> (   0.15893):   -7.499401182843E-16


 QRLRVE -- linear response calculation for symmetry  1  ( A  )
 QRLRVE -- operator label : YDIPLEN 
 QRLRVE -- operator spin  :   0
 QRLRVE -- frequencies :  0.000000  0.019867  0.039733  0.059600  0.079467
                          0.099333  0.119200  0.139067  0.158934



 ---  SOLVING SETS OF LINEAR EQUATIONS FOR LINEAR RESPONSE PROPERTIES ---

 Operator symmetry = 1  ( A  ); triplet =   F

RSPORT:    1 out of    9 new trial vectors linear dependent

 ** RSPCTL MICROITERATION NUMBER    1

       No.  Residual tot.,    conf., and orb.    Bnorm      Frequency 
      ----------------------------------------------------------------
         1    8.64922D-01  0.00D+00  8.65D-01  2.35D+00    0.00000D+00
         2    8.65562D-01  0.00D+00  8.66D-01  2.35D+00    1.98667D-02
         3    8.67491D-01  0.00D+00  8.67D-01  2.36D+00    3.97334D-02
         4    8.70734D-01  0.00D+00  8.71D-01  2.38D+00    5.96001D-02
         5    8.75335D-01  0.00D+00  8.75D-01  2.41D+00    7.94668D-02
         6    8.81358D-01  0.00D+00  8.81D-01  2.45D+00    9.93334D-02
         7    8.88888D-01  0.00D+00  8.89D-01  2.49D+00    1.19200D-01
         8    8.98036D-01  0.00D+00  8.98D-01  2.55D+00    1.39067D-01
         9    9.08946D-01  0.00D+00  9.09D-01  2.62D+00    1.58934D-01

 ** RSPCTL MICROITERATION NUMBER    2

       No.  Residual tot.,    conf., and orb.    Bnorm      Frequency 
      ----------------------------------------------------------------
         1    9.19034D-02  0.00D+00  9.19D-02  2.43D+00    0.00000D+00
         2    9.20936D-02  0.00D+00  9.21D-02  2.44D+00    1.98667D-02
         3    9.26687D-02  0.00D+00  9.27D-02  2.45D+00    3.97334D-02
         4    9.36429D-02  0.00D+00  9.36D-02  2.47D+00    5.96001D-02
         5    9.50404D-02  0.00D+00  9.50D-02  2.50D+00    7.94668D-02
         6    9.68972D-02  0.00D+00  9.69D-02  2.54D+00    9.93334D-02
         7    9.92628D-02  0.00D+00  9.93D-02  2.59D+00    1.19200D-01
         8    1.02203D-01  0.00D+00  1.02D-01  2.65D+00    1.39067D-01
         9    1.05806D-01  0.00D+00  1.06D-01  2.73D+00    1.58934D-01

 ** RSPCTL MICROITERATION NUMBER    3

       No.  Residual tot.,    conf., and orb.    Bnorm      Frequency 
      ----------------------------------------------------------------
         1    7.56315D-03  0.00D+00  7.56D-03  2.43D+00    0.00000D+00
         2    7.59356D-03  0.00D+00  7.59D-03  2.44D+00    1.98667D-02
         3    7.68549D-03  0.00D+00  7.69D-03  2.45D+00    3.97334D-02
         4    7.84119D-03  0.00D+00  7.84D-03  2.47D+00    5.96001D-02
         5    8.06454D-03  0.00D+00  8.06D-03  2.50D+00    7.94668D-02
         6    8.36139D-03  0.00D+00  8.36D-03  2.54D+00    9.93334D-02
         7    8.73995D-03  0.00D+00  8.74D-03  2.59D+00    1.19200D-01
         8    9.21151D-03  0.00D+00  9.21D-03  2.65D+00    1.39067D-01
         9    9.79132D-03  0.00D+00  9.79D-03  2.73D+00    1.58934D-01

 ** RSPCTL MICROITERATION NUMBER    4

       No.  Residual tot.,    conf., and orb.    Bnorm      Frequency 
      ----------------------------------------------------------------
         1    8.64728D-04  0.00D+00  8.65D-04  2.43D+00    0.00000D+00
         2    8.70968D-04  0.00D+00  8.71D-04  2.44D+00    1.98667D-02
         3    8.89810D-04  0.00D+00  8.90D-04  2.45D+00    3.97334D-02
         4    9.21639D-04  0.00D+00  9.22D-04  2.47D+00    5.96001D-02
         5    9.67146D-04  0.00D+00  9.67D-04  2.50D+00    7.94668D-02
         6    1.02740D-03  0.00D+00  1.03D-03  2.54D+00    9.93334D-02
         7    1.10396D-03  0.00D+00  1.10D-03  2.59D+00    1.19200D-01
         8    1.19901D-03  0.00D+00  1.20D-03  2.65D+00    1.39067D-01
         9    1.31558D-03  0.00D+00  1.32D-03  2.73D+00    1.58934D-01

 *** THE REQUESTED    9 SOLUTION VECTORS CONVERGED

 Convergence of RSP solution vectors, threshold = 1.00D-03
 ---------------------------------------------------------------
 (dimension of paired reduced space:   70)
 RSP solution vector no.    1; norm of residual   3.56D-04
 RSP solution vector no.    2; norm of residual   3.58D-04
 RSP solution vector no.    3; norm of residual   3.63D-04
 RSP solution vector no.    4; norm of residual   3.73D-04
 RSP solution vector no.    5; norm of residual   3.87D-04
 RSP solution vector no.    6; norm of residual   4.04D-04
 RSP solution vector no.    7; norm of residual   4.26D-04
 RSP solution vector no.    8; norm of residual   4.52D-04
 RSP solution vector no.    9; norm of residual   4.82D-04

 *** RSPCTL MICROITERATIONS CONVERGED

@ QRLRVE: SINGLET SOLUTION FOR SYMMETRY    1  ( A  )    LABEL   YDIPLEN     FREQUENCY   0.000000D+00

@ QRLRVE:  << XDIPLEN  ; YDIPLEN  >> (   0.00000):   -4.036040029010E-16

@ QRLRVE:  << YDIPLEN  ; YDIPLEN  >> (   0.00000):     9.19394118663    

@ QRLRVE:  << ZDIPLEN  ; YDIPLEN  >> (   0.00000):   -7.836978116172E-06

@ QRLRVE: SINGLET SOLUTION FOR SYMMETRY    1  ( A  )    LABEL   YDIPLEN     FREQUENCY   0.198667D-01

@ QRLRVE:  << XDIPLEN  ; YDIPLEN  >> (   0.01987):   -4.130203507660E-16

@ QRLRVE:  << YDIPLEN  ; YDIPLEN  >> (   0.01987):     9.20229341755    

@ QRLRVE:  << ZDIPLEN  ; YDIPLEN  >> (   0.01987):   -1.024777876969E-05

@ QRLRVE: SINGLET SOLUTION FOR SYMMETRY    1  ( A  )    LABEL   YDIPLEN     FREQUENCY   0.397334D-01

@ QRLRVE:  << XDIPLEN  ; YDIPLEN  >> (   0.03973):   -4.417223237178E-16

@ QRLRVE:  << YDIPLEN  ; YDIPLEN  >> (   0.03973):     9.22746913271    

@ QRLRVE:  << ZDIPLEN  ; YDIPLEN  >> (   0.03973):   -1.762499537940E-05

@ QRLRVE: SINGLET SOLUTION FOR SYMMETRY    1  ( A  )    LABEL   YDIPLEN     FREQUENCY   0.596001D-01

@ QRLRVE:  << XDIPLEN  ; YDIPLEN  >> (   0.05960):   -4.911031955519E-16

@ QRLRVE:  << YDIPLEN  ; YDIPLEN  >> (   0.05960):     9.26983025859    

@ QRLRVE:  << ZDIPLEN  ; YDIPLEN  >> (   0.05960):   -3.041679928602E-05

@ QRLRVE: SINGLET SOLUTION FOR SYMMETRY    1  ( A  )    LABEL   YDIPLEN     FREQUENCY   0.794668D-01

@ QRLRVE:  << XDIPLEN  ; YDIPLEN  >> (   0.07947):   -5.636040581139E-16

@ QRLRVE:  << YDIPLEN  ; YDIPLEN  >> (   0.07947):     9.32999660658    

@ QRLRVE:  << ZDIPLEN  ; YDIPLEN  >> (   0.07947):   -4.941787153303E-05

@ QRLRVE: SINGLET SOLUTION FOR SYMMETRY    1  ( A  )    LABEL   YDIPLEN     FREQUENCY   0.993334D-01

@ QRLRVE:  << XDIPLEN  ; YDIPLEN  >> (   0.09933):   -6.629070393882E-16

@ QRLRVE:  << YDIPLEN  ; YDIPLEN  >> (   0.09933):     9.40887224199    

@ QRLRVE:  << ZDIPLEN  ; YDIPLEN  >> (   0.09933):   -7.584829939189E-05

@ QRLRVE: SINGLET SOLUTION FOR SYMMETRY    1  ( A  )    LABEL   YDIPLEN     FREQUENCY   0.119200D+00

@ QRLRVE:  << XDIPLEN  ; YDIPLEN  >> (   0.11920):   -7.942380752041E-16

@ QRLRVE:  << YDIPLEN  ; YDIPLEN  >> (   0.11920):     9.50768555569    

@ QRLRVE:  << ZDIPLEN  ; YDIPLEN  >> (   0.11920):   -1.114802121172E-04

@ QRLRVE: SINGLET SOLUTION FOR SYMMETRY    1  ( A  )    LABEL   YDIPLEN     FREQUENCY   0.139067D+00

@ QRLRVE:  << XDIPLEN  ; YDIPLEN  >> (   0.13907):   -9.648186640307E-16

@ QRLRVE:  << YDIPLEN  ; YDIPLEN  >> (   0.13907):     9.62804675441    

@ QRLRVE:  << ZDIPLEN  ; YDIPLEN  >> (   0.13907):   -1.588324719215E-04

@ QRLRVE: SINGLET SOLUTION FOR SYMMETRY    1  ( A  )    LABEL   YDIPLEN     FREQUENCY   0.158934D+00

@ QRLRVE:  << XDIPLEN  ; YDIPLEN  >> (   0.15893):   -1.184529869389E-15

@ QRLRVE:  << YDIPLEN  ; YDIPLEN  >> (   0.15893):     9.77202849528    

@ QRLRVE:  << ZDIPLEN  ; YDIPLEN  >> (   0.15893):   -2.214668188444E-04


 QRLRVE -- linear response calculation for symmetry  1  ( A  )
 QRLRVE -- operator label : ZDIPLEN 
 QRLRVE -- operator spin  :   0
 QRLRVE -- frequencies :  0.000000  0.019867  0.039733  0.059600  0.079467
                          0.099333  0.119200  0.139067  0.158934



 ---  SOLVING SETS OF LINEAR EQUATIONS FOR LINEAR RESPONSE PROPERTIES ---

 Operator symmetry = 1  ( A  ); triplet =   F


 ** RSPCTL MICROITERATION NUMBER    1

       No.  Residual tot.,    conf., and orb.    Bnorm      Frequency 
      ----------------------------------------------------------------
         1    1.54951D+00  0.00D+00  1.55D+00  2.21D+00    0.00000D+00
         2    1.55100D+00  0.00D+00  1.55D+00  2.21D+00    1.98667D-02
         3    1.55551D+00  0.00D+00  1.56D+00  2.23D+00    3.97334D-02
         4    1.56312D+00  0.00D+00  1.56D+00  2.25D+00    5.96001D-02
         5    1.57396D+00  0.00D+00  1.57D+00  2.28D+00    7.94668D-02
         6    1.58825D+00  0.00D+00  1.59D+00  2.33D+00    9.93334D-02
         7    1.60626D+00  0.00D+00  1.61D+00  2.38D+00    1.19200D-01
         8    1.62838D+00  0.00D+00  1.63D+00  2.45D+00    1.39067D-01
         9    1.65512D+00  0.00D+00  1.66D+00  2.53D+00    1.58934D-01

 ** RSPCTL MICROITERATION NUMBER    2

       No.  Residual tot.,    conf., and orb.    Bnorm      Frequency 
      ----------------------------------------------------------------
         1    3.76912D-01  0.00D+00  3.77D-01  2.40D+00    0.00000D+00
         2    3.77556D-01  0.00D+00  3.78D-01  2.41D+00    1.98667D-02
         3    3.79503D-01  0.00D+00  3.80D-01  2.42D+00    3.97334D-02
         4    3.82803D-01  0.00D+00  3.83D-01  2.45D+00    5.96001D-02
         5    3.87543D-01  0.00D+00  3.88D-01  2.49D+00    7.94668D-02
         6    3.93854D-01  0.00D+00  3.94D-01  2.54D+00    9.93334D-02
         7    4.01919D-01  0.00D+00  4.02D-01  2.61D+00    1.19200D-01
         8    4.11995D-01  0.00D+00  4.12D-01  2.69D+00    1.39067D-01
         9    4.24432D-01  0.00D+00  4.24D-01  2.80D+00    1.58934D-01

 ** RSPCTL MICROITERATION NUMBER    3

       No.  Residual tot.,    conf., and orb.    Bnorm      Frequency 
      ----------------------------------------------------------------
         1    4.49412D-02  0.00D+00  4.49D-02  2.42D+00    0.00000D+00
         2    4.50492D-02  0.00D+00  4.50D-02  2.42D+00    1.98667D-02
         3    4.53768D-02  0.00D+00  4.54D-02  2.44D+00    3.97334D-02
         4    4.59353D-02  0.00D+00  4.59D-02  2.47D+00    5.96001D-02
         5    4.67442D-02  0.00D+00  4.67D-02  2.51D+00    7.94668D-02
         6    4.78337D-02  0.00D+00  4.78D-02  2.56D+00    9.93334D-02
         7    4.92477D-02  0.00D+00  4.92D-02  2.63D+00    1.19200D-01
         8    5.10482D-02  0.00D+00  5.10D-02  2.72D+00    1.39067D-01
         9    5.33237D-02  0.00D+00  5.33D-02  2.82D+00    1.58934D-01

 ** RSPCTL MICROITERATION NUMBER    4

       No.  Residual tot.,    conf., and orb.    Bnorm      Frequency 
      ----------------------------------------------------------------
         1    5.08684D-03  0.00D+00  5.09D-03  2.42D+00    0.00000D+00
         2    5.10335D-03  0.00D+00  5.10D-03  2.42D+00    1.98667D-02
         3    5.15356D-03  0.00D+00  5.15D-03  2.44D+00    3.97334D-02
         4    5.23960D-03  0.00D+00  5.24D-03  2.47D+00    5.96001D-02
         5    5.36526D-03  0.00D+00  5.37D-03  2.51D+00    7.94668D-02
         6    5.53638D-03  0.00D+00  5.54D-03  2.56D+00    9.93334D-02
         7    5.76153D-03  0.00D+00  5.76D-03  2.63D+00    1.19200D-01
         8    6.05302D-03  0.00D+00  6.05D-03  2.72D+00    1.39067D-01
         9    6.42860D-03  0.00D+00  6.43D-03  2.82D+00    1.58934D-01

 ** RSPCTL MICROITERATION NUMBER    5

       No.  Residual tot.,    conf., and orb.    Bnorm      Frequency 
      ----------------------------------------------------------------
         1    6.66033D-04  0.00D+00  6.66D-04  2.42D+00    0.00000D+00
         2    6.68978D-04  0.00D+00  6.69D-04  2.42D+00    1.98667D-02
         3    6.77950D-04  0.00D+00  6.78D-04  2.44D+00    3.97334D-02
         4    6.93379D-04  0.00D+00  6.93D-04  2.47D+00    5.96001D-02
         5    7.16032D-04  0.00D+00  7.16D-04  2.51D+00    7.94668D-02
         6    7.47103D-04  0.00D+00  7.47D-04  2.56D+00    9.93334D-02
         7    7.88361D-04  0.00D+00  7.88D-04  2.63D+00    1.19200D-01
         8    8.42380D-04  0.00D+00  8.42D-04  2.72D+00    1.39067D-01
         9    9.12922D-04  0.00D+00  9.13D-04  2.82D+00    1.58934D-01

 *** THE REQUESTED    9 SOLUTION VECTORS CONVERGED

 Convergence of RSP solution vectors, threshold = 1.00D-03
 ---------------------------------------------------------------
 (dimension of paired reduced space:   90)
 RSP solution vector no.    1; norm of residual   2.76D-04
 RSP solution vector no.    2; norm of residual   2.76D-04
 RSP solution vector no.    3; norm of residual   2.78D-04
 RSP solution vector no.    4; norm of residual   2.81D-04
 RSP solution vector no.    5; norm of residual   2.85D-04
 RSP solution vector no.    6; norm of residual   2.92D-04
 RSP solution vector no.    7; norm of residual   3.00D-04
 RSP solution vector no.    8; norm of residual   3.10D-04
 RSP solution vector no.    9; norm of residual   3.23D-04

 *** RSPCTL MICROITERATIONS CONVERGED

@ QRLRVE: SINGLET SOLUTION FOR SYMMETRY    1  ( A  )    LABEL   ZDIPLEN     FREQUENCY   0.000000D+00

@ QRLRVE:  << XDIPLEN  ; ZDIPLEN  >> (   0.00000):   -3.083294888766E-15

@ QRLRVE:  << YDIPLEN  ; ZDIPLEN  >> (   0.00000):   -2.073583168755E-04

@ QRLRVE:  << ZDIPLEN  ; ZDIPLEN  >> (   0.00000):     8.52527234442    

@ QRLRVE: SINGLET SOLUTION FOR SYMMETRY    1  ( A  )    LABEL   ZDIPLEN     FREQUENCY   0.198667D-01

@ QRLRVE:  << XDIPLEN  ; ZDIPLEN  >> (   0.01987):   -3.113772796205E-15

@ QRLRVE:  << YDIPLEN  ; ZDIPLEN  >> (   0.01987):   -2.075478554843E-04

@ QRLRVE:  << ZDIPLEN  ; ZDIPLEN  >> (   0.01987):     8.53440539618    

@ QRLRVE: SINGLET SOLUTION FOR SYMMETRY    1  ( A  )    LABEL   ZDIPLEN     FREQUENCY   0.397334D-01

@ QRLRVE:  << XDIPLEN  ; ZDIPLEN  >> (   0.03973):   -3.207085869065E-15

@ QRLRVE:  << YDIPLEN  ; ZDIPLEN  >> (   0.03973):   -2.080950765173E-04

@ QRLRVE:  << ZDIPLEN  ; ZDIPLEN  >> (   0.03973):     8.56199009592    

@ QRLRVE: SINGLET SOLUTION FOR SYMMETRY    1  ( A  )    LABEL   ZDIPLEN     FREQUENCY   0.596001D-01

@ QRLRVE:  << XDIPLEN  ; ZDIPLEN  >> (   0.05960):   -3.369102738552E-15

@ QRLRVE:  << YDIPLEN  ; ZDIPLEN  >> (   0.05960):   -2.089315171931E-04

@ QRLRVE:  << ZDIPLEN  ; ZDIPLEN  >> (   0.05960):     8.60859474500    

@ QRLRVE: SINGLET SOLUTION FOR SYMMETRY    1  ( A  )    LABEL   ZDIPLEN     FREQUENCY   0.794668D-01

@ QRLRVE:  << XDIPLEN  ; ZDIPLEN  >> (   0.07947):   -3.610420189075E-15

@ QRLRVE:  << YDIPLEN  ; ZDIPLEN  >> (   0.07947):   -2.099278108445E-04

@ QRLRVE:  << ZDIPLEN  ; ZDIPLEN  >> (   0.07947):     8.67520692612    

@ QRLRVE: SINGLET SOLUTION FOR SYMMETRY    1  ( A  )    LABEL   ZDIPLEN     FREQUENCY   0.993334D-01

@ QRLRVE:  << XDIPLEN  ; ZDIPLEN  >> (   0.09933):   -3.947766265388E-15

@ QRLRVE:  << YDIPLEN  ; ZDIPLEN  >> (   0.09933):   -2.108669729054E-04

@ QRLRVE:  << ZDIPLEN  ; ZDIPLEN  >> (   0.09933):     8.76329978559    

@ QRLRVE: SINGLET SOLUTION FOR SYMMETRY    1  ( A  )    LABEL   ZDIPLEN     FREQUENCY   0.119200D+00

@ QRLRVE:  << XDIPLEN  ; ZDIPLEN  >> (   0.11920):   -4.406382374776E-15

@ QRLRVE:  << YDIPLEN  ; ZDIPLEN  >> (   0.11920):   -2.113980739466E-04

@ QRLRVE:  << ZDIPLEN  ; ZDIPLEN  >> (   0.11920):     8.87493748964    

@ QRLRVE: SINGLET SOLUTION FOR SYMMETRY    1  ( A  )    LABEL   ZDIPLEN     FREQUENCY   0.139067D+00

@ QRLRVE:  << XDIPLEN  ; ZDIPLEN  >> (   0.13907):   -5.023966469706E-15

@ QRLRVE:  << YDIPLEN  ; ZDIPLEN  >> (   0.13907):   -2.109577831576E-04

@ QRLRVE:  << ZDIPLEN  ; ZDIPLEN  >> (   0.13907):     9.01293612391    

@ QRLRVE: SINGLET SOLUTION FOR SYMMETRY    1  ( A  )    LABEL   ZDIPLEN     FREQUENCY   0.158934D+00

@ QRLRVE:  << XDIPLEN  ; ZDIPLEN  >> (   0.15893):   -5.857248047376E-15

@ QRLRVE:  << YDIPLEN  ; ZDIPLEN  >> (   0.15893):   -2.086366793320E-04

@ QRLRVE:  << ZDIPLEN  ; ZDIPLEN  >> (   0.15893):     9.18110761092    
 
 ======================================================================
 ---  L I N E A R   R E S P O N S E   F U N C T I O N S --- 
 ======================================================================

 The -<<A;B>>(omega_b) functions from vectors generated
 in a *QUADRA calculation of <<A;B,C>>(omega_b,omega_c)

 Note: the accuracy of off-diagonal elements will be linear
 in the convergence threshold THCLR =  1.00D-03


 Perturbation symmetry.     KSYMOP:           1
 Perturbation spin symmetry.TRPLET:           F
 Orbital variables.         KZWOPT:         670
 Configuration variables.   KZCONF:           0
 Total number of variables. KZVAR :         670

@ Singlet linear response function in a.u.

@ A operator, symmetry, frequency:   XDIPLEN    1 -0.000000
@ B operator, symmetry, frequency:   XDIPLEN    1  0.000000

@ Value of linear response -<<A;B>>(omega):       7.912378625202

@ Singlet linear response function in a.u.

@ A operator, symmetry, frequency:   YDIPLEN    1 -0.000000
@ B operator, symmetry, frequency:   XDIPLEN    1  0.000000

@ Value of linear response -<<A;B>>(omega):       0.000000000000

@ Singlet linear response function in a.u.

@ A operator, symmetry, frequency:   ZDIPLEN    1 -0.000000
@ B operator, symmetry, frequency:   XDIPLEN    1  0.000000

@ Value of linear response -<<A;B>>(omega):      -0.000000000000

@ Singlet linear response function in a.u.

@ A operator, symmetry, frequency:   XDIPLEN    1 -0.019867
@ B operator, symmetry, frequency:   XDIPLEN    1  0.019867

@ Value of linear response -<<A;B>>(omega):       7.922951373251

@ Singlet linear response function in a.u.

@ A operator, symmetry, frequency:   YDIPLEN    1 -0.019867
@ B operator, symmetry, frequency:   XDIPLEN    1  0.019867

@ Value of linear response -<<A;B>>(omega):       0.000000000000

@ Singlet linear response function in a.u.

@ A operator, symmetry, frequency:   ZDIPLEN    1 -0.019867
@ B operator, symmetry, frequency:   XDIPLEN    1  0.019867

@ Value of linear response -<<A;B>>(omega):      -0.000000000000

@ Singlet linear response function in a.u.

@ A operator, symmetry, frequency:   XDIPLEN    1 -0.039733
@ B operator, symmetry, frequency:   XDIPLEN    1  0.039733

@ Value of linear response -<<A;B>>(omega):       7.955000915093

@ Singlet linear response function in a.u.

@ A operator, symmetry, frequency:   YDIPLEN    1 -0.039733
@ B operator, symmetry, frequency:   XDIPLEN    1  0.039733

@ Value of linear response -<<A;B>>(omega):       0.000000000000

@ Singlet linear response function in a.u.

@ A operator, symmetry, frequency:   ZDIPLEN    1 -0.039733
@ B operator, symmetry, frequency:   XDIPLEN    1  0.039733

@ Value of linear response -<<A;B>>(omega):      -0.000000000000

@ Singlet linear response function in a.u.

@ A operator, symmetry, frequency:   XDIPLEN    1 -0.059600
@ B operator, symmetry, frequency:   XDIPLEN    1  0.059600

@ Value of linear response -<<A;B>>(omega):       8.009555606016

@ Singlet linear response function in a.u.

@ A operator, symmetry, frequency:   YDIPLEN    1 -0.059600
@ B operator, symmetry, frequency:   XDIPLEN    1  0.059600

@ Value of linear response -<<A;B>>(omega):       0.000000000000

@ Singlet linear response function in a.u.

@ A operator, symmetry, frequency:   ZDIPLEN    1 -0.059600
@ B operator, symmetry, frequency:   XDIPLEN    1  0.059600

@ Value of linear response -<<A;B>>(omega):      -0.000000000000

@ Singlet linear response function in a.u.

@ A operator, symmetry, frequency:   XDIPLEN    1 -0.079467
@ B operator, symmetry, frequency:   XDIPLEN    1  0.079467

@ Value of linear response -<<A;B>>(omega):       8.088451814484

@ Singlet linear response function in a.u.

@ A operator, symmetry, frequency:   YDIPLEN    1 -0.079467
@ B operator, symmetry, frequency:   XDIPLEN    1  0.079467

@ Value of linear response -<<A;B>>(omega):       0.000000000000

@ Singlet linear response function in a.u.

@ A operator, symmetry, frequency:   ZDIPLEN    1 -0.079467
@ B operator, symmetry, frequency:   XDIPLEN    1  0.079467

@ Value of linear response -<<A;B>>(omega):      -0.000000000000

@ Singlet linear response function in a.u.

@ A operator, symmetry, frequency:   XDIPLEN    1 -0.000000
@ B operator, symmetry, frequency:   YDIPLEN    1  0.000000

@ Value of linear response -<<A;B>>(omega):      -0.000000000000

@ Singlet linear response function in a.u.

@ A operator, symmetry, frequency:   YDIPLEN    1 -0.000000
@ B operator, symmetry, frequency:   YDIPLEN    1  0.000000

@ Value of linear response -<<A;B>>(omega):       9.193941186627

@ Singlet linear response function in a.u.

@ A operator, symmetry, frequency:   ZDIPLEN    1 -0.000000
@ B operator, symmetry, frequency:   YDIPLEN    1  0.000000

@ Value of linear response -<<A;B>>(omega):      -0.000007836978

@ Singlet linear response function in a.u.

@ A operator, symmetry, frequency:   XDIPLEN    1 -0.019867
@ B operator, symmetry, frequency:   YDIPLEN    1  0.019867

@ Value of linear response -<<A;B>>(omega):      -0.000000000000

@ Singlet linear response function in a.u.

@ A operator, symmetry, frequency:   YDIPLEN    1 -0.019867
@ B operator, symmetry, frequency:   YDIPLEN    1  0.019867

@ Value of linear response -<<A;B>>(omega):       9.202293417547

@ Singlet linear response function in a.u.

@ A operator, symmetry, frequency:   ZDIPLEN    1 -0.019867
@ B operator, symmetry, frequency:   YDIPLEN    1  0.019867

@ Value of linear response -<<A;B>>(omega):      -0.000010247779

@ Singlet linear response function in a.u.

@ A operator, symmetry, frequency:   XDIPLEN    1 -0.039733
@ B operator, symmetry, frequency:   YDIPLEN    1  0.039733

@ Value of linear response -<<A;B>>(omega):      -0.000000000000

@ Singlet linear response function in a.u.

@ A operator, symmetry, frequency:   YDIPLEN    1 -0.039733
@ B operator, symmetry, frequency:   YDIPLEN    1  0.039733

@ Value of linear response -<<A;B>>(omega):       9.227469132712

@ Singlet linear response function in a.u.

@ A operator, symmetry, frequency:   ZDIPLEN    1 -0.039733
@ B operator, symmetry, frequency:   YDIPLEN    1  0.039733

@ Value of linear response -<<A;B>>(omega):      -0.000017624995

@ Singlet linear response function in a.u.

@ A operator, symmetry, frequency:   XDIPLEN    1 -0.059600
@ B operator, symmetry, frequency:   YDIPLEN    1  0.059600

@ Value of linear response -<<A;B>>(omega):      -0.000000000000

@ Singlet linear response function in a.u.

@ A operator, symmetry, frequency:   YDIPLEN    1 -0.059600
@ B operator, symmetry, frequency:   YDIPLEN    1  0.059600

@ Value of linear response -<<A;B>>(omega):       9.269830258593

@ Singlet linear response function in a.u.

@ A operator, symmetry, frequency:   ZDIPLEN    1 -0.059600
@ B operator, symmetry, frequency:   YDIPLEN    1  0.059600

@ Value of linear response -<<A;B>>(omega):      -0.000030416799

@ Singlet linear response function in a.u.

@ A operator, symmetry, frequency:   XDIPLEN    1 -0.079467
@ B operator, symmetry, frequency:   YDIPLEN    1  0.079467

@ Value of linear response -<<A;B>>(omega):      -0.000000000000

@ Singlet linear response function in a.u.

@ A operator, symmetry, frequency:   YDIPLEN    1 -0.079467
@ B operator, symmetry, frequency:   YDIPLEN    1  0.079467

@ Value of linear response -<<A;B>>(omega):       9.329996606583

@ Singlet linear response function in a.u.

@ A operator, symmetry, frequency:   ZDIPLEN    1 -0.079467
@ B operator, symmetry, frequency:   YDIPLEN    1  0.079467

@ Value of linear response -<<A;B>>(omega):      -0.000049417872

@ Singlet linear response function in a.u.

@ A operator, symmetry, frequency:   XDIPLEN    1 -0.000000
@ B operator, symmetry, frequency:   ZDIPLEN    1  0.000000

@ Value of linear response -<<A;B>>(omega):      -0.000000000000

@ Singlet linear response function in a.u.

@ A operator, symmetry, frequency:   YDIPLEN    1 -0.000000
@ B operator, symmetry, frequency:   ZDIPLEN    1  0.000000

@ Value of linear response -<<A;B>>(omega):      -0.000207358317

@ Singlet linear response function in a.u.

@ A operator, symmetry, frequency:   ZDIPLEN    1 -0.000000
@ B operator, symmetry, frequency:   ZDIPLEN    1  0.000000

@ Value of linear response -<<A;B>>(omega):       8.525272344417

@ Singlet linear response function in a.u.

@ A operator, symmetry, frequency:   XDIPLEN    1 -0.019867
@ B operator, symmetry, frequency:   ZDIPLEN    1  0.019867

@ Value of linear response -<<A;B>>(omega):      -0.000000000000

@ Singlet linear response function in a.u.

@ A operator, symmetry, frequency:   YDIPLEN    1 -0.019867
@ B operator, symmetry, frequency:   ZDIPLEN    1  0.019867

@ Value of linear response -<<A;B>>(omega):      -0.000207547855

@ Singlet linear response function in a.u.

@ A operator, symmetry, frequency:   ZDIPLEN    1 -0.019867
@ B operator, symmetry, frequency:   ZDIPLEN    1  0.019867

@ Value of linear response -<<A;B>>(omega):       8.534405396176

@ Singlet linear response function in a.u.

@ A operator, symmetry, frequency:   XDIPLEN    1 -0.039733
@ B operator, symmetry, frequency:   ZDIPLEN    1  0.039733

@ Value of linear response -<<A;B>>(omega):      -0.000000000000

@ Singlet linear response function in a.u.

@ A operator, symmetry, frequency:   YDIPLEN    1 -0.039733
@ B operator, symmetry, frequency:   ZDIPLEN    1  0.039733

@ Value of linear response -<<A;B>>(omega):      -0.000208095077

@ Singlet linear response function in a.u.

@ A operator, symmetry, frequency:   ZDIPLEN    1 -0.039733
@ B operator, symmetry, frequency:   ZDIPLEN    1  0.039733

@ Value of linear response -<<A;B>>(omega):       8.561990095921

@ Singlet linear response function in a.u.

@ A operator, symmetry, frequency:   XDIPLEN    1 -0.059600
@ B operator, symmetry, frequency:   ZDIPLEN    1  0.059600

@ Value of linear response -<<A;B>>(omega):      -0.000000000000

@ Singlet linear response function in a.u.

@ A operator, symmetry, frequency:   YDIPLEN    1 -0.059600
@ B operator, symmetry, frequency:   ZDIPLEN    1  0.059600

@ Value of linear response -<<A;B>>(omega):      -0.000208931517

@ Singlet linear response function in a.u.

@ A operator, symmetry, frequency:   ZDIPLEN    1 -0.059600
@ B operator, symmetry, frequency:   ZDIPLEN    1  0.059600

@ Value of linear response -<<A;B>>(omega):       8.608594745002

@ Singlet linear response function in a.u.

@ A operator, symmetry, frequency:   XDIPLEN    1 -0.079467
@ B operator, symmetry, frequency:   ZDIPLEN    1  0.079467

@ Value of linear response -<<A;B>>(omega):      -0.000000000000

@ Singlet linear response function in a.u.

@ A operator, symmetry, frequency:   YDIPLEN    1 -0.079467
@ B operator, symmetry, frequency:   ZDIPLEN    1  0.079467

[...]
@ B-freq = 0.059600  C-freq = 0.059600     beta(Y;Z,Y) =     10.33769169
@ B-freq = 0.059600  C-freq = 0.059600     beta(Z;Z,Y) =     -0.00120290
@ B-freq = 0.079467  C-freq = 0.059600     beta(X;Z,Y) =     -0.00000000
@ B-freq = 0.079467  C-freq = 0.059600     beta(Y;Z,Y) =     10.72498054
@ B-freq = 0.079467  C-freq = 0.059600     beta(Z;Z,Y) =     -0.00114907
@ B-freq = 0.000000  C-freq = 0.079467     beta(X;X,Y) = beta(X,Y,X)
@ B-freq = 0.000000  C-freq = 0.079467     beta(Y;X,Y) = beta(Y,Y,X)
@ B-freq = 0.000000  C-freq = 0.079467     beta(Z;X,Y) = beta(Z,Y,X)
@ B-freq = 0.019867  C-freq = 0.079467     beta(X;X,Y) = beta(X,Y,X)
@ B-freq = 0.019867  C-freq = 0.079467     beta(Y;X,Y) = beta(Y,Y,X)
@ B-freq = 0.019867  C-freq = 0.079467     beta(Z;X,Y) = beta(Z,Y,X)
@ B-freq = 0.039733  C-freq = 0.079467     beta(X;X,Y) = beta(X,Y,X)
@ B-freq = 0.039733  C-freq = 0.079467     beta(Y;X,Y) = beta(Y,Y,X)
@ B-freq = 0.039733  C-freq = 0.079467     beta(Z;X,Y) = beta(Z,Y,X)
@ B-freq = 0.059600  C-freq = 0.079467     beta(X;X,Y) = beta(X,Y,X)
@ B-freq = 0.059600  C-freq = 0.079467     beta(Y;X,Y) = beta(Y,Y,X)
@ B-freq = 0.059600  C-freq = 0.079467     beta(Z;X,Y) = beta(Z,Y,X)
@ B-freq = 0.079467  C-freq = 0.079467     beta(X;X,Y) = beta(X,Y,X)
@ B-freq = 0.079467  C-freq = 0.079467     beta(Y;X,Y) = beta(Y,Y,X)
@ B-freq = 0.079467  C-freq = 0.079467     beta(Z;X,Y) = beta(Z,Y,X)
@ B-freq = 0.000000  C-freq = 0.079467     beta(X;Y,Y) = beta(X,Y,Y)
@ B-freq = 0.000000  C-freq = 0.079467     beta(Y;Y,Y) = beta(Y,Y,Y)
@ B-freq = 0.000000  C-freq = 0.079467     beta(Z;Y,Y) = beta(Z,Y,Y)
@ B-freq = 0.019867  C-freq = 0.079467     beta(X;Y,Y) = beta(X,Y,Y)
@ B-freq = 0.019867  C-freq = 0.079467     beta(Y;Y,Y) = beta(Y,Y,Y)
@ B-freq = 0.019867  C-freq = 0.079467     beta(Z;Y,Y) = beta(Z,Y,Y)
@ B-freq = 0.039733  C-freq = 0.079467     beta(X;Y,Y) = beta(X,Y,Y)
@ B-freq = 0.039733  C-freq = 0.079467     beta(Y;Y,Y) = beta(Y,Y,Y)
@ B-freq = 0.039733  C-freq = 0.079467     beta(Z;Y,Y) = beta(Z,Y,Y)
@ B-freq = 0.059600  C-freq = 0.079467     beta(X;Y,Y) = beta(X,Y,Y)
@ B-freq = 0.059600  C-freq = 0.079467     beta(Y;Y,Y) = beta(Y,Y,Y)
@ B-freq = 0.059600  C-freq = 0.079467     beta(Z;Y,Y) = beta(Z,Y,Y)
@ B-freq = 0.079467  C-freq = 0.079467     beta(X;Y,Y) =     -0.00000000
@ B-freq = 0.079467  C-freq = 0.079467     beta(Y;Y,Y) =      0.00106165
@ B-freq = 0.079467  C-freq = 0.079467     beta(Z;Y,Y) =     11.23917327
@ B-freq = 0.000000  C-freq = 0.079467     beta(X;Z,Y) =     -0.00000000
@ B-freq = 0.000000  C-freq = 0.079467     beta(Y;Z,Y) =      9.93621004
@ B-freq = 0.000000  C-freq = 0.079467     beta(Z;Z,Y) =     -0.00140062
@ B-freq = 0.019867  C-freq = 0.079467     beta(X;Z,Y) =     -0.00000000
@ B-freq = 0.019867  C-freq = 0.079467     beta(Y;Z,Y) =     10.11307663
@ B-freq = 0.019867  C-freq = 0.079467     beta(Z;Z,Y) =     -0.00138672
@ B-freq = 0.039733  C-freq = 0.079467     beta(X;Z,Y) =     -0.00000000
@ B-freq = 0.039733  C-freq = 0.079467     beta(Y;Z,Y) =     10.37031966
@ B-freq = 0.039733  C-freq = 0.079467     beta(Z;Z,Y) =     -0.00136136
@ B-freq = 0.059600  C-freq = 0.079467     beta(X;Z,Y) =     -0.00000000
@ B-freq = 0.059600  C-freq = 0.079467     beta(Y;Z,Y) =     10.71765552
@ B-freq = 0.059600  C-freq = 0.079467     beta(Z;Z,Y) =     -0.00131686
@ B-freq = 0.079467  C-freq = 0.079467     beta(X;Z,Y) =     -0.00000000
@ B-freq = 0.079467  C-freq = 0.079467     beta(Y;Z,Y) =     11.16912555
@ B-freq = 0.079467  C-freq = 0.079467     beta(Z;Z,Y) =     -0.00124017
@ B-freq = 0.000000  C-freq = 0.000000     beta(X;X,Z) = beta(Z,X,X)
@ B-freq = 0.000000  C-freq = 0.000000     beta(Y;X,Z) = beta(Z,Y,X)
@ B-freq = 0.000000  C-freq = 0.000000     beta(Z;X,Z) = beta(Z,Z,X)
@ B-freq = 0.019867  C-freq = 0.000000     beta(X;X,Z) = beta(X,Z,X)
@ B-freq = 0.019867  C-freq = 0.000000     beta(Y;X,Z) = beta(Y,Z,X)
@ B-freq = 0.019867  C-freq = 0.000000     beta(Z;X,Z) = beta(Z,Z,X)
@ B-freq = 0.039733  C-freq = 0.000000     beta(X;X,Z) = beta(X,Z,X)
@ B-freq = 0.039733  C-freq = 0.000000     beta(Y;X,Z) = beta(Y,Z,X)
@ B-freq = 0.039733  C-freq = 0.000000     beta(Z;X,Z) = beta(Z,Z,X)
@ B-freq = 0.059600  C-freq = 0.000000     beta(X;X,Z) = beta(X,Z,X)
@ B-freq = 0.059600  C-freq = 0.000000     beta(Y;X,Z) = beta(Y,Z,X)
@ B-freq = 0.059600  C-freq = 0.000000     beta(Z;X,Z) = beta(Z,Z,X)
@ B-freq = 0.079467  C-freq = 0.000000     beta(X;X,Z) = beta(X,Z,X)
@ B-freq = 0.079467  C-freq = 0.000000     beta(Y;X,Z) = beta(Y,Z,X)
@ B-freq = 0.079467  C-freq = 0.000000     beta(Z;X,Z) = beta(Z,Z,X)
@ B-freq = 0.000000  C-freq = 0.000000     beta(X;Y,Z) = beta(Z,Y,X)
@ B-freq = 0.000000  C-freq = 0.000000     beta(Y;Y,Z) = beta(Z,Y,Y)
@ B-freq = 0.000000  C-freq = 0.000000     beta(Z;Y,Z) = beta(Z,Z,Y)
@ B-freq = 0.019867  C-freq = 0.000000     beta(X;Y,Z) = beta(X,Z,Y)
@ B-freq = 0.019867  C-freq = 0.000000     beta(Y;Y,Z) = beta(Y,Z,Y)
@ B-freq = 0.019867  C-freq = 0.000000     beta(Z;Y,Z) = beta(Z,Z,Y)
@ B-freq = 0.039733  C-freq = 0.000000     beta(X;Y,Z) = beta(X,Z,Y)
@ B-freq = 0.039733  C-freq = 0.000000     beta(Y;Y,Z) = beta(Y,Z,Y)
@ B-freq = 0.039733  C-freq = 0.000000     beta(Z;Y,Z) = beta(Z,Z,Y)
@ B-freq = 0.059600  C-freq = 0.000000     beta(X;Y,Z) = beta(X,Z,Y)
@ B-freq = 0.059600  C-freq = 0.000000     beta(Y;Y,Z) = beta(Y,Z,Y)
@ B-freq = 0.059600  C-freq = 0.000000     beta(Z;Y,Z) = beta(Z,Z,Y)
@ B-freq = 0.079467  C-freq = 0.000000     beta(X;Y,Z) = beta(X,Z,Y)
@ B-freq = 0.079467  C-freq = 0.000000     beta(Y;Y,Z) = beta(Y,Z,Y)
@ B-freq = 0.079467  C-freq = 0.000000     beta(Z;Y,Z) = beta(Z,Z,Y)
@ B-freq = 0.000000  C-freq = 0.000000     beta(X;Z,Z) = beta(Z,Z,X)
@ B-freq = 0.000000  C-freq = 0.000000     beta(Y;Z,Z) = beta(Z,Z,Y)
@ B-freq = 0.000000  C-freq = 0.000000     beta(X;Z,Z) =     -0.00000000
@ B-freq = 0.000000  C-freq = 0.000000     beta(Y;Z,Z) =     -0.00109846
@ B-freq = 0.000000  C-freq = 0.000000     beta(Z;Z,Z) =      7.29709367
@ B-freq = 0.019867  C-freq = 0.000000     beta(X;Z,Z) =     -0.00000000
@ B-freq = 0.019867  C-freq = 0.000000     beta(Y;Z,Z) =     -0.00111583
@ B-freq = 0.019867  C-freq = 0.000000     beta(Z;Z,Z) =      7.33187260
@ B-freq = 0.039733  C-freq = 0.000000     beta(X;Z,Z) =     -0.00000000
@ B-freq = 0.039733  C-freq = 0.000000     beta(Y;Z,Z) =     -0.00116909
@ B-freq = 0.039733  C-freq = 0.000000     beta(Z;Z,Z) =      7.43781804
@ B-freq = 0.059600  C-freq = 0.000000     beta(X;Z,Z) =     -0.00000000
@ B-freq = 0.059600  C-freq = 0.000000     beta(Y;Z,Z) =     -0.00126186
@ B-freq = 0.059600  C-freq = 0.000000     beta(Z;Z,Z) =      7.61992316
@ B-freq = 0.079467  C-freq = 0.000000     beta(X;Z,Z) =     -0.00000000
@ B-freq = 0.079467  C-freq = 0.000000     beta(Y;Z,Z) =     -0.00140062
@ B-freq = 0.079467  C-freq = 0.000000     beta(Z;Z,Z) =      7.88709806
@ B-freq = 0.000000  C-freq = 0.019867     beta(X;X,Z) = beta(X,Z,X)
@ B-freq = 0.000000  C-freq = 0.019867     beta(Y;X,Z) = beta(Y,Z,X)
@ B-freq = 0.000000  C-freq = 0.019867     beta(Z;X,Z) = beta(Z,Z,X)
@ B-freq = 0.019867  C-freq = 0.019867     beta(X;X,Z) = beta(X,Z,X)
@ B-freq = 0.019867  C-freq = 0.019867     beta(Y;X,Z) = beta(Y,Z,X)
@ B-freq = 0.019867  C-freq = 0.019867     beta(Z;X,Z) = beta(Z,Z,X)
@ B-freq = 0.039733  C-freq = 0.019867     beta(X;X,Z) = beta(X,Z,X)
@ B-freq = 0.039733  C-freq = 0.019867     beta(Y;X,Z) = beta(Y,Z,X)
@ B-freq = 0.039733  C-freq = 0.019867     beta(Z;X,Z) = beta(Z,Z,X)
@ B-freq = 0.059600  C-freq = 0.019867     beta(X;X,Z) = beta(X,Z,X)
@ B-freq = 0.059600  C-freq = 0.019867     beta(Y;X,Z) = beta(Y,Z,X)
@ B-freq = 0.059600  C-freq = 0.019867     beta(Z;X,Z) = beta(Z,Z,X)
@ B-freq = 0.079467  C-freq = 0.019867     beta(X;X,Z) = beta(X,Z,X)
@ B-freq = 0.079467  C-freq = 0.019867     beta(Y;X,Z) = beta(Y,Z,X)
@ B-freq = 0.079467  C-freq = 0.019867     beta(Z;X,Z) = beta(Z,Z,X)
@ B-freq = 0.000000  C-freq = 0.019867     beta(X;Y,Z) = beta(X,Z,Y)
@ B-freq = 0.000000  C-freq = 0.019867     beta(Y;Y,Z) = beta(Y,Z,Y)
@ B-freq = 0.000000  C-freq = 0.019867     beta(Z;Y,Z) = beta(Z,Z,Y)
@ B-freq = 0.019867  C-freq = 0.019867     beta(X;Y,Z) = beta(X,Z,Y)
@ B-freq = 0.019867  C-freq = 0.019867     beta(Y;Y,Z) = beta(Y,Z,Y)
@ B-freq = 0.019867  C-freq = 0.019867     beta(Z;Y,Z) = beta(Z,Z,Y)
@ B-freq = 0.039733  C-freq = 0.019867     beta(X;Y,Z) = beta(X,Z,Y)
@ B-freq = 0.039733  C-freq = 0.019867     beta(Y;Y,Z) = beta(Y,Z,Y)
@ B-freq = 0.039733  C-freq = 0.019867     beta(Z;Y,Z) = beta(Z,Z,Y)
@ B-freq = 0.059600  C-freq = 0.019867     beta(X;Y,Z) = beta(X,Z,Y)
@ B-freq = 0.059600  C-freq = 0.019867     beta(Y;Y,Z) = beta(Y,Z,Y)
@ B-freq = 0.059600  C-freq = 0.019867     beta(Z;Y,Z) = beta(Z,Z,Y)
@ B-freq = 0.079467  C-freq = 0.019867     beta(X;Y,Z) = beta(X,Z,Y)
@ B-freq = 0.079467  C-freq = 0.019867     beta(Y;Y,Z) = beta(Y,Z,Y)
@ B-freq = 0.079467  C-freq = 0.019867     beta(Z;Y,Z) = beta(Z,Z,Y)
@ B-freq = 0.000000  C-freq = 0.019867     beta(X;Z,Z) = beta(X,Z,Z)
@ B-freq = 0.000000  C-freq = 0.019867     beta(Y;Z,Z) = beta(Y,Z,Z)
@ B-freq = 0.000000  C-freq = 0.019867     beta(Z;Z,Z) = beta(Z,Z,Z)
@ B-freq = 0.019867  C-freq = 0.019867     beta(X;Z,Z) =     -0.00000000
@ B-freq = 0.019867  C-freq = 0.019867     beta(Y;Z,Z) =     -0.00117104
@ B-freq = 0.019867  C-freq = 0.019867     beta(Z;Z,Z) =      7.40223250
@ B-freq = 0.039733  C-freq = 0.019867     beta(X;Z,Z) =     -0.00000000
@ B-freq = 0.039733  C-freq = 0.019867     beta(Y;Z,Z) =     -0.00126600
@ B-freq = 0.039733  C-freq = 0.019867     beta(Z;Z,Z) =      7.54623876
@ B-freq = 0.059600  C-freq = 0.019867     beta(X;Z,Z) =     -0.00000000
@ B-freq = 0.059600  C-freq = 0.019867     beta(Y;Z,Z) =     -0.00140746
@ B-freq = 0.059600  C-freq = 0.019867     beta(Z;Z,Z) =      7.77081045
@ B-freq = 0.079467  C-freq = 0.019867     beta(X;Z,Z) =     -0.00000000
@ B-freq = 0.079467  C-freq = 0.019867     beta(Y;Z,Z) =     -0.00160587
@ B-freq = 0.079467  C-freq = 0.019867     beta(Z;Z,Z) =      8.08725600
@ B-freq = 0.000000  C-freq = 0.039733     beta(X;X,Z) = beta(X,Z,X)
@ B-freq = 0.000000  C-freq = 0.039733     beta(Y;X,Z) = beta(Y,Z,X)
@ B-freq = 0.000000  C-freq = 0.039733     beta(Z;X,Z) = beta(Z,Z,X)
@ B-freq = 0.019867  C-freq = 0.039733     beta(X;X,Z) = beta(X,Z,X)
@ B-freq = 0.019867  C-freq = 0.039733     beta(Y;X,Z) = beta(Y,Z,X)
@ B-freq = 0.019867  C-freq = 0.039733     beta(Z;X,Z) = beta(Z,Z,X)
@ B-freq = 0.039733  C-freq = 0.039733     beta(X;X,Z) = beta(X,Z,X)
@ B-freq = 0.039733  C-freq = 0.039733     beta(Y;X,Z) = beta(Y,Z,X)
@ B-freq = 0.039733  C-freq = 0.039733     beta(Z;X,Z) = beta(Z,Z,X)
@ B-freq = 0.059600  C-freq = 0.039733     beta(X;X,Z) = beta(X,Z,X)
@ B-freq = 0.059600  C-freq = 0.039733     beta(Y;X,Z) = beta(Y,Z,X)
@ B-freq = 0.059600  C-freq = 0.039733     beta(Z;X,Z) = beta(Z,Z,X)
@ B-freq = 0.079467  C-freq = 0.039733     beta(X;X,Z) = beta(X,Z,X)
@ B-freq = 0.079467  C-freq = 0.039733     beta(Y;X,Z) = beta(Y,Z,X)
@ B-freq = 0.079467  C-freq = 0.039733     beta(Z;X,Z) = beta(Z,Z,X)
@ B-freq = 0.000000  C-freq = 0.039733     beta(X;Y,Z) = beta(X,Z,Y)
@ B-freq = 0.000000  C-freq = 0.039733     beta(Y;Y,Z) = beta(Y,Z,Y)
@ B-freq = 0.000000  C-freq = 0.039733     beta(Z;Y,Z) = beta(Z,Z,Y)
@ B-freq = 0.019867  C-freq = 0.039733     beta(X;Y,Z) = beta(X,Z,Y)
@ B-freq = 0.019867  C-freq = 0.039733     beta(Y;Y,Z) = beta(Y,Z,Y)
@ B-freq = 0.019867  C-freq = 0.039733     beta(Z;Y,Z) = beta(Z,Z,Y)
@ B-freq = 0.039733  C-freq = 0.039733     beta(X;Y,Z) = beta(X,Z,Y)
@ B-freq = 0.039733  C-freq = 0.039733     beta(Y;Y,Z) = beta(Y,Z,Y)
@ B-freq = 0.039733  C-freq = 0.039733     beta(Z;Y,Z) = beta(Z,Z,Y)
@ B-freq = 0.059600  C-freq = 0.039733     beta(X;Y,Z) = beta(X,Z,Y)
@ B-freq = 0.059600  C-freq = 0.039733     beta(Y;Y,Z) = beta(Y,Z,Y)
@ B-freq = 0.059600  C-freq = 0.039733     beta(Z;Y,Z) = beta(Z,Z,Y)
@ B-freq = 0.079467  C-freq = 0.039733     beta(X;Y,Z) = beta(X,Z,Y)
@ B-freq = 0.079467  C-freq = 0.039733     beta(Y;Y,Z) = beta(Y,Z,Y)
@ B-freq = 0.079467  C-freq = 0.039733     beta(Z;Y,Z) = beta(Z,Z,Y)
@ B-freq = 0.000000  C-freq = 0.039733     beta(X;Z,Z) = beta(X,Z,Z)
@ B-freq = 0.000000  C-freq = 0.039733     beta(Y;Z,Z) = beta(Y,Z,Z)
@ B-freq = 0.000000  C-freq = 0.039733     beta(Z;Z,Z) = beta(Z,Z,Z)
@ B-freq = 0.019867  C-freq = 0.039733     beta(X;Z,Z) = beta(X,Z,Z)
@ B-freq = 0.019867  C-freq = 0.039733     beta(Y;Z,Z) = beta(Y,Z,Z)
@ B-freq = 0.019867  C-freq = 0.039733     beta(Z;Z,Z) = beta(Z,Z,Z)
@ B-freq = 0.039733  C-freq = 0.039733     beta(X;Z,Z) =     -0.00000000
@ B-freq = 0.039733  C-freq = 0.039733     beta(Y;Z,Z) =     -0.00140951
@ B-freq = 0.039733  C-freq = 0.039733     beta(Z;Z,Z) =      7.73266222
@ B-freq = 0.059600  C-freq = 0.039733     beta(X;Z,Z) =     -0.00000000
@ B-freq = 0.059600  C-freq = 0.039733     beta(Y;Z,Z) =     -0.00161020
@ B-freq = 0.059600  C-freq = 0.039733     beta(Z;Z,Z) =      8.00631826
@ B-freq = 0.079467  C-freq = 0.039733     beta(X;Z,Z) =     -0.00000000
@ B-freq = 0.079467  C-freq = 0.039733     beta(Y;Z,Z) =     -0.00188379
@ B-freq = 0.079467  C-freq = 0.039733     beta(Z;Z,Z) =      8.38154908
@ B-freq = 0.000000  C-freq = 0.059600     beta(X;X,Z) = beta(X,Z,X)
@ B-freq = 0.000000  C-freq = 0.059600     beta(Y;X,Z) = beta(Y,Z,X)
@ B-freq = 0.000000  C-freq = 0.059600     beta(Z;X,Z) = beta(Z,Z,X)
@ B-freq = 0.019867  C-freq = 0.059600     beta(X;X,Z) = beta(X,Z,X)
@ B-freq = 0.019867  C-freq = 0.059600     beta(Y;X,Z) = beta(Y,Z,X)
@ B-freq = 0.019867  C-freq = 0.059600     beta(Z;X,Z) = beta(Z,Z,X)
@ B-freq = 0.039733  C-freq = 0.059600     beta(X;X,Z) = beta(X,Z,X)
@ B-freq = 0.039733  C-freq = 0.059600     beta(Y;X,Z) = beta(Y,Z,X)
@ B-freq = 0.039733  C-freq = 0.059600     beta(Z;X,Z) = beta(Z,Z,X)
@ B-freq = 0.059600  C-freq = 0.059600     beta(X;X,Z) = beta(X,Z,X)
@ B-freq = 0.059600  C-freq = 0.059600     beta(Y;X,Z) = beta(Y,Z,X)
@ B-freq = 0.059600  C-freq = 0.059600     beta(Z;X,Z) = beta(Z,Z,X)
@ B-freq = 0.079467  C-freq = 0.059600     beta(X;X,Z) = beta(X,Z,X)
@ B-freq = 0.079467  C-freq = 0.059600     beta(Y;X,Z) = beta(Y,Z,X)
@ B-freq = 0.079467  C-freq = 0.059600     beta(Z;X,Z) = beta(Z,Z,X)
@ B-freq = 0.000000  C-freq = 0.059600     beta(X;Y,Z) = beta(X,Z,Y)
@ B-freq = 0.000000  C-freq = 0.059600     beta(Y;Y,Z) = beta(Y,Z,Y)
@ B-freq = 0.000000  C-freq = 0.059600     beta(Z;Y,Z) = beta(Z,Z,Y)
@ B-freq = 0.019867  C-freq = 0.059600     beta(X;Y,Z) = beta(X,Z,Y)
@ B-freq = 0.019867  C-freq = 0.059600     beta(Y;Y,Z) = beta(Y,Z,Y)
@ B-freq = 0.019867  C-freq = 0.059600     beta(Z;Y,Z) = beta(Z,Z,Y)
@ B-freq = 0.039733  C-freq = 0.059600     beta(X;Y,Z) = beta(X,Z,Y)
@ B-freq = 0.039733  C-freq = 0.059600     beta(Y;Y,Z) = beta(Y,Z,Y)
@ B-freq = 0.039733  C-freq = 0.059600     beta(Z;Y,Z) = beta(Z,Z,Y)
@ B-freq = 0.059600  C-freq = 0.059600     beta(X;Y,Z) = beta(X,Z,Y)
@ B-freq = 0.059600  C-freq = 0.059600     beta(Y;Y,Z) = beta(Y,Z,Y)
@ B-freq = 0.059600  C-freq = 0.059600     beta(Z;Y,Z) = beta(Z,Z,Y)
@ B-freq = 0.079467  C-freq = 0.059600     beta(X;Y,Z) = beta(X,Z,Y)
@ B-freq = 0.079467  C-freq = 0.059600     beta(Y;Y,Z) = beta(Y,Z,Y)
@ B-freq = 0.079467  C-freq = 0.059600     beta(Z;Y,Z) = beta(Z,Z,Y)
@ B-freq = 0.000000  C-freq = 0.059600     beta(X;Z,Z) = beta(X,Z,Z)
@ B-freq = 0.000000  C-freq = 0.059600     beta(Y;Z,Z) = beta(Y,Z,Z)
@ B-freq = 0.000000  C-freq = 0.059600     beta(Z;Z,Z) = beta(Z,Z,Z)
@ B-freq = 0.019867  C-freq = 0.059600     beta(X;Z,Z) = beta(X,Z,Z)
@ B-freq = 0.019867  C-freq = 0.059600     beta(Y;Z,Z) = beta(Y,Z,Z)
@ B-freq = 0.019867  C-freq = 0.059600     beta(Z;Z,Z) = beta(Z,Z,Z)
@ B-freq = 0.039733  C-freq = 0.059600     beta(X;Z,Z) = beta(X,Z,Z)
@ B-freq = 0.039733  C-freq = 0.059600     beta(Y;Z,Z) = beta(Y,Z,Z)
@ B-freq = 0.039733  C-freq = 0.059600     beta(Z;Z,Z) = beta(Z,Z,Z)
@ B-freq = 0.059600  C-freq = 0.059600     beta(X;Z,Z) =     -0.00000000
@ B-freq = 0.059600  C-freq = 0.059600     beta(Y;Z,Z) =     -0.00188580
@ B-freq = 0.059600  C-freq = 0.059600     beta(Z;Z,Z) =      8.33859870
@ B-freq = 0.079467  C-freq = 0.059600     beta(X;Z,Z) =     -0.00000000
@ B-freq = 0.079467  C-freq = 0.059600     beta(Y;Z,Z) =     -0.00225712
@ B-freq = 0.079467  C-freq = 0.059600     beta(Z;Z,Z) =      8.78599709
@ B-freq = 0.000000  C-freq = 0.079467     beta(X;X,Z) = beta(X,Z,X)
@ B-freq = 0.000000  C-freq = 0.079467     beta(Y;X,Z) = beta(Y,Z,X)
@ B-freq = 0.000000  C-freq = 0.079467     beta(Z;X,Z) = beta(Z,Z,X)
@ B-freq = 0.019867  C-freq = 0.079467     beta(X;X,Z) = beta(X,Z,X)
@ B-freq = 0.019867  C-freq = 0.079467     beta(Y;X,Z) = beta(Y,Z,X)
@ B-freq = 0.019867  C-freq = 0.079467     beta(Z;X,Z) = beta(Z,Z,X)
@ B-freq = 0.039733  C-freq = 0.079467     beta(X;X,Z) = beta(X,Z,X)
@ B-freq = 0.039733  C-freq = 0.079467     beta(Y;X,Z) = beta(Y,Z,X)
@ B-freq = 0.039733  C-freq = 0.079467     beta(Z;X,Z) = beta(Z,Z,X)
@ B-freq = 0.059600  C-freq = 0.079467     beta(X;X,Z) = beta(X,Z,X)
@ B-freq = 0.059600  C-freq = 0.079467     beta(Y;X,Z) = beta(Y,Z,X)
@ B-freq = 0.059600  C-freq = 0.079467     beta(Z;X,Z) = beta(Z,Z,X)
@ B-freq = 0.079467  C-freq = 0.079467     beta(X;X,Z) = beta(X,Z,X)
@ B-freq = 0.079467  C-freq = 0.079467     beta(Y;X,Z) = beta(Y,Z,X)
@ B-freq = 0.079467  C-freq = 0.079467     beta(Z;X,Z) = beta(Z,Z,X)
@ B-freq = 0.000000  C-freq = 0.079467     beta(X;Y,Z) = beta(X,Z,Y)
@ B-freq = 0.000000  C-freq = 0.079467     beta(Y;Y,Z) = beta(Y,Z,Y)
@ B-freq = 0.000000  C-freq = 0.079467     beta(Z;Y,Z) = beta(Z,Z,Y)
@ B-freq = 0.019867  C-freq = 0.079467     beta(X;Y,Z) = beta(X,Z,Y)
@ B-freq = 0.019867  C-freq = 0.079467     beta(Y;Y,Z) = beta(Y,Z,Y)
@ B-freq = 0.019867  C-freq = 0.079467     beta(Z;Y,Z) = beta(Z,Z,Y)
@ B-freq = 0.039733  C-freq = 0.079467     beta(X;Y,Z) = beta(X,Z,Y)
@ B-freq = 0.039733  C-freq = 0.079467     beta(Y;Y,Z) = beta(Y,Z,Y)
@ B-freq = 0.039733  C-freq = 0.079467     beta(Z;Y,Z) = beta(Z,Z,Y)
@ B-freq = 0.059600  C-freq = 0.079467     beta(X;Y,Z) = beta(X,Z,Y)
@ B-freq = 0.059600  C-freq = 0.079467     beta(Y;Y,Z) = beta(Y,Z,Y)
@ B-freq = 0.059600  C-freq = 0.079467     beta(Z;Y,Z) = beta(Z,Z,Y)
@ B-freq = 0.079467  C-freq = 0.079467     beta(X;Y,Z) = beta(X,Z,Y)
@ B-freq = 0.079467  C-freq = 0.079467     beta(Y;Y,Z) = beta(Y,Z,Y)
@ B-freq = 0.079467  C-freq = 0.079467     beta(Z;Y,Z) = beta(Z,Z,Y)
@ B-freq = 0.000000  C-freq = 0.079467     beta(X;Z,Z) = beta(X,Z,Z)
@ B-freq = 0.000000  C-freq = 0.079467     beta(Y;Z,Z) = beta(Y,Z,Z)
@ B-freq = 0.000000  C-freq = 0.079467     beta(Z;Z,Z) = beta(Z,Z,Z)
@ B-freq = 0.019867  C-freq = 0.079467     beta(X;Z,Z) = beta(X,Z,Z)
@ B-freq = 0.019867  C-freq = 0.079467     beta(Y;Z,Z) = beta(Y,Z,Z)
@ B-freq = 0.019867  C-freq = 0.079467     beta(Z;Z,Z) = beta(Z,Z,Z)
@ B-freq = 0.039733  C-freq = 0.079467     beta(X;Z,Z) = beta(X,Z,Z)
@ B-freq = 0.039733  C-freq = 0.079467     beta(Y;Z,Z) = beta(Y,Z,Z)
@ B-freq = 0.039733  C-freq = 0.079467     beta(Z;Z,Z) = beta(Z,Z,Z)
@ B-freq = 0.059600  C-freq = 0.079467     beta(X;Z,Z) = beta(X,Z,Z)
@ B-freq = 0.059600  C-freq = 0.079467     beta(Y;Z,Z) = beta(Y,Z,Z)
@ B-freq = 0.059600  C-freq = 0.079467     beta(Z;Z,Z) = beta(Z,Z,Z)
@ B-freq = 0.079467  C-freq = 0.079467     beta(X;Z,Z) =     -0.00000000
@ B-freq = 0.079467  C-freq = 0.079467     beta(Y;Z,Z) =     -0.00275891
@ B-freq = 0.079467  C-freq = 0.079467     beta(Z;Z,Z) =      9.32443597

  Total CPU  time used in RESPONSE:  2 minutes 28 seconds
  Total wall time used in RESPONSE:  2 minutes 29 seconds


                   .-------------------------------------------.
                   | End of Dynamic Property Section (RESPONS) |
                   `-------------------------------------------'

  Total CPU  time used in DALTON:  2 minutes 34 seconds
  Total wall time used in DALTON:  2 minutes 35 seconds

 
     Date and time (Linux)  : Thu Sep  7 21:48:32 2023
     Host name              : sn-mem                                  
